ITEM: TIMESTEP
1000
ITEM: NUMBER OF ATOMS
300
ITEM: BOX BOUNDS pp pp pp
-9.9943299999999997e+00 1.0005670000000000e+01
-9.9461431999999999e+00 1.0053856800000000e+01
-9.7533399999999997e+00 1.0246660000000000e+01
ITEM: ATOMS x y z vx vy vz 
-5.31222 -6.95264 -5.58066 -0.00735244 -0.000720627 0.00294404 
-5.47096 -7.82337 -5.11523 -0.000434748 -0.0115919 -0.0148991 
-5.16321 -7.11808 -6.55555 0.00534195 0.019407 0.00142761 
-1.03852 -4.8463 -6.94474 -0.000277176 -0.000682529 -0.00437524 
-0.270809 -4.5009 -7.48447 -0.00456873 -0.00783057 -0.0149944 
-1.13563 -5.83018 -7.09491 -0.0171571 0.00182399 -0.00990632 
-1.66803 -0.826861 -8.4916 0.00175546 0.00379961 0.000239844 
-1.82389 -1.33171 -7.64259 0.0118067 0.0146343 0.00858366 
-8.59693 -7.83059 -7.0722 -0.00625371 0.0021344 0.00272055 
-9.46286 -7.43647 -7.38015 -0.0108065 0.00910202 0.024684 
-8.26068 -8.47454 -7.75941 -0.00840736 0.0299662 -0.0242448 
-1.66852 -8.15081 -2.91553 0.00355565 -0.00112032 0.00332658 
-1.63431 -7.21091 -3.25524 0.0233279 -0.00814523 -0.0147049 
-0.770419 -8.40965 -2.55997 0.00614044 -0.0232702 -0.0194422 
-2.41744 -2.28305 -6.38071 0.00729944 0.000421974 0.000869046 
-1.95492 -3.11636 -6.68349 0.0186759 0.00683053 0.000486239 
-2.16413 -2.0866 -5.43348 -0.0118671 -0.00811524 0.00778596 
-5.12703 -2.87907 -5.88136 -0.00307949 0.00404665 0.00594991 
-4.17033 -2.65186 -6.06328 -0.00205269 0.0104601 0.0189073 
-5.68145 -2.04808 -5.92672 -0.00480023 0.00364141 0.0188005 
-7.44545 -1.99143 -9.67978 0.0079575 -0.0149475 0.0124052 
-8.45324 -3.27892 -6.92957 -0.00671956 -0.00155887 4.13212e-05 
-8.5071 -2.98556 -7.88405 -0.00692425 0.0221451 0.00736045 
-7.55107 -3.67211 -6.75209 -0.00288964 0.0040543 -0.00702775 
-6.02936 -7.06408 -2.49456 -0.00542509 0.00100082 0.00394555 
-6.86873 -6.76101 -2.04332 0.00424865 0.00626007 0.0184906 
-5.50221 -6.26668 -2.78827 -0.00763905 -0.00234896 -0.00908323 
-2.66533 -9.80778 -3.10206 -0.0177171 0.00643819 0.00062962 
-4.65582 -4.78356 -4.12759 -0.00542461 -0.00221427 0.000462864 
-4.87708 -5.60979 -4.64565 -0.00324919 -0.00344742 0.00150038 
-4.98847 -3.98076 -4.62242 -0.0189311 -0.00454094 0.00566701 
-1.41913 -2.16765 -3.76881 0.00183246 -0.00215295 0.000456369 
-0.468002 -1.8611 -3.73163 -0.00926787 0.0311344 0.00698227 
-1.56604 -2.88221 -3.08483 0.0119187 0.0211524 0.0272246 
-1.93692 -5.31977 -4.13558 -0.000268438 0.000701257 0.00478359 
-1.6006 -5.01913 -5.02805 0.017971 0.00902111 0.0144384 
-2.91515 -5.12462 -4.06497 0.00372964 0.0237597 -0.00338999 
-5.7001 -1.29885 -8.76389 -0.00324881 -0.00435459 -0.00394218 
-4.99834 -1.19049 -9.46802 0.00663712 -0.0228539 0.00315174 
0.519483 0.40306 -2.24298 -0.0158464 -0.00473492 0.00654326 
-3.79975 -0.744205 -3.36497 0.00163742 -0.00474349 -0.00511707 
-2.85547 -1.07122 -3.32745 0.00539606 0.00460195 -0.0185481 
-4.42141 -1.52581 -3.41609 0.00892003 -0.0107667 -0.0018496 
-5.96087 -8.49167 -3.37918 -0.0177125 0.00339516 0.0135778 
0.242152 9.23683 -4.82828 0.003072 -0.00012982 -0.000885374 
0.555949 9.70126 -4.00013 -0.000492075 -0.00879757 0.00537079 
0.935928 9.3249 -5.54306 0.0160483 -0.0119487 0.0102046 
-9.59671 -4.25825 -6.04412 -0.00048477 0.00359364 -0.00130661 
-3.9771 2.06838 -8.73537 0.0329696 0.0287642 -0.0127392 
-1.60944 -8.0186 -4.85711 -0.0104214 0.0235003 -0.00760263 
-3.53561 -1.42789 9.3748 0.000921657 -0.00182202 -0.00331428 
-2.97294 -1.77498 10.1251 -0.0047549 -0.00669586 -0.00129278 
-9.10125 -6.6926 -3.81062 0.00303857 -0.00145477 0.00831429 
9.7559 -4.77995 -5.48851 0.0011011 0.00341259 0.000365687 
-9.96135 -4.74878 -4.52982 0.0115832 -0.00860616 -0.00245957 
-8.38546 -2.28802 -9.51121 0.000437075 -0.000336395 -0.00414656 
-9.01899 -1.66417 10.0311 0.0184322 0.00597853 -0.0203461 
-9.29637 -5.90073 -3.23194 -0.000620836 0.00369547 -4.37944e-05 
9.8747 -6.07294 -2.69974 0.00235 0.00391967 0.00466092 
0.952553 -0.496884 -2.29347 -0.00357909 0.00156499 -7.20888e-05 
-6.10799 -9.36394 -3.84555 0.000452284 0.00450053 0.00586439 
-4.03409 -8.60048 -8.21407 -0.00369639 -0.00311269 -0.00815593 
-1.16712 -8.02549 -5.75393 0.00475613 0.00293351 -4.52302e-05 
-1.70347 -8.58494 -6.38587 0.00618629 0.0025148 -0.000886944 
0.867148 -3.69724 -8.72704 0.00265341 -0.00401746 -0.0034094 
8.15132 -5.73752 -1.07404 -0.00325618 -0.00961326 0.00653558 
4.10666 -9.74819 -7.52127 0.000643162 0.00546786 0.00293532 
3.25283 9.74122 -7.41992 0.000695981 0.00506434 0.0013569 
4.59232 -9.734 -6.64724 0.00542578 -0.00561353 0.000462603 
1.29988 -7.04007 -6.33493 -0.0052079 0.00112631 0.00443093 
0.511656 -7.5814 -6.04224 0.00112734 -0.0104575 0.000159532 
1.59637 -6.44998 -5.58401 0.010034 -0.0274456 0.02081 
1.08593 -8.6176 -2.41056 0.00400087 0.00136074 -0.00323472 
1.39623 -7.75509 -2.01083 -0.00730531 0.0171093 -0.0283472 
1.87624 -9.19949 -2.60241 0.0100108 -0.00324707 0.0350552 
7.80331 -9.63816 -7.71271 -0.00289144 -0.00289539 0.00657053 
7.61909 9.91283 -6.83838 0.00264384 0.0320298 0.0254069 
8.37735 -8.83372 -7.5599 0.0200528 -0.011781 -0.0319151 
6.418 -3.78022 -9.52106 -0.000132186 -0.00439663 -0.00135245 
6.22627 -4.39544 -8.75638 -0.0113929 0.00276593 0.0016557 
6.59397 -4.31802 9.65444 -0.00636394 -0.0117314 0.00206608 
5.49365 -2.29551 -8.29756 0.0127685 0.0046298 -0.00158623 
7.99817 9.80568 -4.8068 5.10418e-05 -0.00453065 0.00345592 
4.8995 -2.49506 -3.9986 0.000332656 0.00120346 -0.00477491 
5.69896 -2.15087 -4.49093 -0.0191578 0.0257965 -0.0192485 
4.51346 -3.27394 -4.49289 0.00386411 0.00156466 -0.00809739 
2.9427 -4.48616 -7.51581 -0.00361091 0.00187528 0.000406373 
3.38781 -4.48869 -6.62034 -0.00053588 0.00264895 -0.00112478 
3.0908 -5.36766 -7.96417 -0.0234442 -0.00626588 0.00975165 
2.73991 -4.89861 -2.80087 -0.00070495 0.000798175 -2.05475e-06 
1.91008 -4.34722 -2.71511 0.000590651 0.000600207 0.0133555 
3.45732 -4.51381 -2.22014 0.00392829 -0.0079796 6.47928e-05 
1.50967 -1.3739 -6.46998 -0.00063862 -0.0038556 0.00159163 
1.56863 -2.14101 -7.10878 -0.00900173 -0.00463539 0.00174854 
4.42805 -4.95456 -5.13337 -0.00115873 0.00133197 0.00107869 
3.78049 -5.09566 -4.38453 -0.00246607 -0.00662836 -0.00157789 
5.30488 -5.37459 -4.89942 0.00449968 0.0163264 0.00674917 
2.901 -0.291399 -4.35035 -0.0111577 -0.00133784 -0.000668277 
3.67244 -0.892131 -4.14058 -0.00410972 0.00572589 -0.00645592 
1.65862 -0.487795 -3.00156 0.00533213 0.0202463 0.00914501 
6.9438 -6.06926 -4.59246 -0.00286028 0.00369598 0.00101902 
7.08868 -6.18946 -3.61034 -0.0261524 0.00941941 0.0052053 
7.79585 -5.76824 -5.02071 0.00892811 -0.00460805 0.0184888 
4.70492 -2.15074 -1.4274 -0.00300705 -0.000625662 -0.00275772 
4.93357 -1.18892 -1.27703 0.00720062 -0.00488997 0.00870117 
4.79476 -2.36667 -2.39967 -0.00215975 0.00916944 -0.00484717 
5.25276 -8.64841 -4.64296 -0.00165119 -0.00118236 -0.00022113 
5.71595 -7.79477 -4.40474 0.00239573 -0.00224161 -0.00434051 
5.93369 -9.35951 -4.81808 -0.004906 -0.00381655 -0.00218153 
8.92733 -6.82371 -7.3389 0.00335587 0.00203233 -0.0024819 
9.11706 -6.14504 -6.62939 -0.00821936 -0.00603077 0.0085127 
7.96068 -6.78072 -7.59136 0.00165771 -0.0128912 0.00109488 
5.99566 -5.97619 -7.67179 0.00136702 0.00336805 -0.00222154 
5.20266 -6.42498 -8.08379 0.00671506 -0.00315553 -0.00535346 
5.85368 -5.88765 -6.68589 0.00158767 -0.00776978 -0.00119044 
2.05097 -2.55317 -0.882809 0.00306738 -0.00582262 0.00389527 
3.00784 -2.26651 -0.929933 0.00434605 -0.0130577 -0.0139592 
1.47072 -1.8454 -1.28577 0.00129331 -0.00322355 0.0110435 
8.40811 -6.25728 -1.88885 0.00205039 -0.00130579 0.00289609 
8.26514 -7.23264 -1.72084 0.00675851 -0.00351614 -0.00585414 
7.81519 -8.87791 -1.65669 -0.0064625 0.00189409 0.00131412 
8.25589 -9.19002 -2.49834 0.00737379 0.0151634 0.00362538 
2.42069 -0.635073 -5.15731 -0.0039301 0.00381238 -0.00715567 
0.785075 -0.75045 -6.7637 -0.00301464 -0.00307696 0.00906998 
1.39999 7.83296 -6.5683 -0.00720412 -0.0167983 -0.0160201 
1.74815 -3.90815 -8.30354 -0.0102419 -0.01047 0.0200898 
1.05677 -6.66191 -7.95746 -0.0148193 -0.000462808 -0.00544329 
7.67003 -9.65755 -1.04752 0.0192846 -0.0015798 0.00314536 
-2.35383 -0.104537 -8.5806 -0.0151556 -0.0138162 -0.0137404 
-5.37555 -0.900937 -7.9058 -0.0126029 0.0121104 -0.00797599 
-3.31279 1.41642 -8.36984 -0.00740702 -0.00390126 0.00217524 
-2.75092 1.86669 -7.6759 0.026635 -0.0208547 -0.0147877 
-7.63905 0.582433 -6.1934 -0.000124694 0.00195418 -0.00303013 
-6.68575 0.345243 -6.38037 -0.00289521 -0.00209444 -0.0121902 
-8.24075 -0.086769 -6.62944 -0.0074219 0.0123991 -0.00913832 
-2.87178 1.86304 -3.76166 -0.00395314 0.00573304 0.0057772 
-3.2647 0.975954 -3.51939 0.00289176 -0.0002988 -0.00517677 
-4.89319 -0.0351465 -6.27293 -0.00468624 -0.00393831 0.00255567 
-4.63735 0.299124 -5.36584 -0.010787 0.0248219 -0.00619525 
-4.32274 0.407846 -6.96455 -0.0179645 -0.00605878 -0.00979173 
0.05061 0.549808 9.80907 -0.00510092 -0.00249054 -0.00421253 
-0.658211 -0.0599282 10.1637 -0.00893306 0.00620602 0.00296595 
-4.87739 9.73068 -5.98273 0.00299087 0.00346104 -0.00201985 
-5.393 9.8845 -5.13983 -0.0166511 0.00139946 -0.0135587 
-5.06022 -9.52562 -6.62576 -0.0169605 -0.0178902 -0.0212193 
-8.36341 4.84003 -7.34449 -0.00625256 0.00446401 -7.70236e-05 
-8.18145 5.69296 -7.83378 -0.00673876 0.00143125 -0.00553438 
-2.67261 -9.53139 -8.51138 0.00444111 0.00382185 0.00128698 
-2.5192 9.74784 -7.8354 0.00974712 0.00998229 0.00664123 
-1.85689 -9.42927 -9.08074 6.68851e-05 -0.00121963 -0.00596377 
-7.30774 3.18974 -5.15361 0.00918754 0.00510733 -0.00531999 
-7.42282 3.75947 -5.96735 0.00210616 -0.000865907 -0.00846666 
-7.34891 2.22501 -5.41359 -0.00481858 0.00327444 0.00395224 
-3.00814 9.26526 -3.25444 0.000415668 -0.000195221 0.000153842 
-3.86154 9.13816 -2.74891 -0.00142025 -0.014481 -0.00654109 
-2.30254 9.03405 -6.17513 0.00403859 -0.000475928 -0.00804531 
-1.60255 9.20666 -5.48215 0.0090054 0.00969676 -0.0155536 
-3.20911 9.14967 -5.76922 0.00678365 -0.00498889 -0.000566026 
-4.61446 3.27653 -5.02574 0.00346078 0.00103255 -0.00218674 
-5.57069 3.5491 -4.91935 -0.00399635 -0.0216123 -0.0125958 
-4.15037 3.9195 -5.63502 -0.0104085 -0.000264806 -0.0140332 
-3.35225 5.30391 -2.77261 -0.0035128 -0.000789221 -0.0065115 
-2.54153 5.86205 -2.59595 -0.00481875 0.00402715 -0.0156646 
-3.07077 4.38155 -3.03722 -0.00139282 -0.00512201 0.0110182 
-2.13406 5.32044 -7.00953 0.00216973 0.00119392 -0.0024009 
-5.76686 6.54461 -3.67287 0.00574827 0.00140574 -0.000921757 
-5.42121 6.85684 -4.55776 -0.00338746 0.00504039 -0.00316991 
-5.10918 5.91321 -3.26204 0.00469738 -0.00911905 -0.0154374 
-1.91778 6.95399 -8.05 0.000649858 0.000619824 0.00504079 
-1.13956 7.02914 -8.67349 -0.0046121 -0.000377033 -0.00159862 
-1.77606 7.55793 -7.26568 -0.00343269 0.0184201 -0.00814955 
-8.83424 5.18911 -3.81304 -0.00425054 0.000991656 0.00233682 
-8.47397 4.25665 -3.78615 0.00585609 0.00491648 0.00305426 
-8.29716 5.7717 -3.20303 0.0215632 0.0189514 -0.0378786 
-3.54232 2.39445 -4.27933 -0.0052315 0.0037707 0.00541645 
-6.09132 7.53673 -7.02066 0.000155931 -0.00122954 -0.00483403 
-6.95383 7.65517 -7.51265 0.00548788 0.0155393 -0.0100453 
-5.71231 8.43335 -6.7917 0.0206956 -0.00855624 -0.0103061 
-8.44001 7.22821 -9.00319 0.0037116 -0.00524748 0.000950828 
-5.48449 8.74452 -2.01443 -0.000763219 -0.00211046 -0.00152629 
-5.77234 7.88406 -2.43485 -0.00506178 0.00114605 -0.00526762 
-5.5365 8.66301 -1.01912 0.00673815 -0.00888884 -0.00169539 
-0.843755 4.49634 9.81368 0.00929074 -0.00113903 -0.00269227 
-1.69562 4.62861 9.30689 0.00426911 -0.00245088 0.00541119 
-5.93648 9.88444 -3.20864 0.00440871 0.00258713 0.00254371 
-9.35246 1.79446 -9.63768 0.00651935 -0.013817 -0.00813635 
-1.89504 7.86526 -3.17653 0.00443624 -0.000690776 -0.0136716 
-8.36644 -8.28075 -4.39146 -0.00347057 -0.00780672 0.00169711 
-7.54071 -8.72545 -4.04446 0.00694385 0.0137614 0.00458993 
-4.43905 5.71302 -7.38106 0.00332531 4.08646e-06 0.0047091 
-5.15478 6.3609 -7.12033 -0.0094727 -0.00312098 -0.0231238 
-3.68058 6.20733 -7.80578 -0.00488262 -0.00286251 -0.0132551 
-5.2311 3.63502 -8.97168 7.61358e-05 -0.000580788 0.00867575 
-6.14835 3.28888 -8.77459 0.000782601 0.00404225 0.0201845 
-5.07115 4.47209 -8.44849 0.00809927 0.0027275 0.000935792 
-8.05965 2.55617 -8.58463 0.000697703 -0.000172895 -0.00216945 
-8.25435 3.45835 -8.19971 -0.00296132 -0.00162709 -0.000596211 
-8.20519 1.85673 -7.88491 -0.00182329 -0.00245441 -0.00495231 
-8.24525 -8.06157 -5.35959 -0.00339309 0.00101584 0.00371668 
-9.17534 4.95116 -6.77142 -0.00557246 0.0080741 0.000185763 
-0.0595235 3.47061 -3.03989 -0.0177884 0.0099349 -0.01173 
-1.22782 2.35153 -3.26225 -0.00721012 0.000597556 -0.0196472 
0.0757757 7.1982 9.7345 0.00900003 0.000751993 -0.000546839 
1.02993 6.96868 9.92658 0.0107651 0.00846225 -0.000111811 
-1.92403 4.96645 -6.09817 -0.00333425 0.00206605 -0.000785699 
-2.20825 5.63224 -5.40829 -0.00893449 0.00204921 -0.00307765 
-8.4605 7.05908 10.0114 -0.00222416 -0.0203013 0.00364875 
9.74963 1.6503 9.94642 0.00125438 -0.00141891 -0.00120414 
-1.10805 7.29148 -3.40329 0.00578602 -0.00555405 0.003747 
0.0398091 7.97904 9.1108 0.00284712 0.00904442 0.0102038 
3.04982 9.91498 -3.3004 0.00135682 -0.00060282 0.00331417 
3.71458 -9.51947 -3.7885 -0.0150736 0.0142524 -0.00198174 
4.97125 8.26064 -8.97916 0.0167662 -0.000704034 -0.00239466 
9.31095 9.79872 -3.40745 0.00624964 -0.00184651 0.00330103 
10.0827 -9.57968 -3.54174 0.0160394 -0.0111832 0.0164207 
9.57215 8.87655 -3.6927 -0.00511461 -0.00188839 -0.00692833 
-0.441967 4.96459 -1.92495 -0.0064031 0.00555142 0.00125799 
0.147047 5.07134 -1.12392 -0.0243424 -0.00421709 0.015737 
-0.459808 5.82035 -2.44201 0.0210856 0.00566857 0.000394986 
1.85127 8.47777 -7.18521 -0.000518512 -0.00507146 0.00115283 
9.51102 8.10802 -7.70582 -0.000292359 -0.00219952 -0.00474314 
9.58824 7.96681 -6.71885 -0.00719338 0.00192767 -0.00360554 
8.88466 8.86644 -7.88604 0.0112476 0.00557055 -0.0118856 
-9.35717 7.4716 -8.68761 0.00339459 -0.0109363 0.00449935 
3.15479 8.96069 -3.58022 0.0171586 0.00241636 -0.00113309 
-0.3778 7.86117 -3.78038 0.0222495 -0.00822063 0.0310247 
7.45091 6.49919 -8.17968 -6.91648e-06 -0.00340858 -0.00552838 
7.55941 5.7181 -8.79461 0.0208386 0.00491376 -0.0123456 
8.30146 7.02448 -8.15473 -0.0128868 0.017005 0.00181297 
4.76295 -1.80972 -7.81789 0.00742826 -0.0071143 0.00214585 
3.97182 -2.41301 -7.71712 0.00485235 -0.00821947 -0.0248939 
7.0841 9.4624 -5.02274 -0.000503598 -0.00118544 0.000617438 
7.01457 8.50349 -4.74769 -0.00422675 -0.00147543 -0.00138743 
3.42628 2.36098 -9.01009 0.00346826 0.0044753 0.00724 
3.5353 1.56495 -9.60545 -0.00120199 0.0201816 -0.0146679 
2.46115 2.46933 -8.77179 0.00550793 -0.00256311 0.0187409 
8.27599 3.69819 -9.15113 -0.00309632 -0.00318184 0.000255589 
8.77957 2.9483 -9.58017 0.0131571 0.0141251 -0.0109282 
7.37821 3.37108 -8.85621 -0.000228316 -0.0242967 -0.014439 
4.9068 7.3547 -8.56069 -0.00104954 0.00206864 0.000971604 
5.82615 6.99618 -8.39865 -0.00805073 -0.0128105 0.00793997 
6.94543 6.32156 -4.68198 0.00376982 -0.00148816 0.00506454 
6.06684 6.30675 -5.15933 0.00278952 0.00770864 0.00659407 
7.31205 5.39267 -4.62961 -0.00232633 -0.00429536 -0.00212646 
-0.288679 2.60798 -3.49084 -0.0021196 -0.000660745 0.000758387 
1.96378 8.05546 -8.08465 0.0185661 0.00833161 -0.00273386 
5.80932 3.18411 -7.80519 -0.00500609 0.000328679 0.00389192 
5.62649 3.56376 -6.8983 -0.0116073 0.02371 -0.0071828 
2.47802 6.41243 -9.45768 -0.000775879 -0.00595806 0.000661389 
2.76369 5.63784 9.97805 8.86419e-06 -0.0145147 0.0127953 
3.26834 6.77386 -8.96296 -0.00470275 -0.00927459 0.00942963 
-0.779505 2.29379 -6.21479 -0.000495929 0.00523868 -0.00088655 
-1.37625 3.08218 -6.06531 -0.00561361 -0.00344904 0.0249254 
-0.39822 1.99379 -5.34036 0.0232759 -0.00373572 -0.0143473 
2.63351 4.27668 -6.61431 0.000105596 0.00346781 0.00226596 
2.87375 4.17518 -7.5797 -0.00438886 0.0185453 -0.000529047 
2.26192 3.41417 -6.2708 0.0065495 -0.00351623 -0.00810662 
1.81443 2.27552 -5.21065 -0.00101118 -0.00237894 0.00835812 
1.22056 2.4495 -4.42512 0.00723824 -0.0124131 0.0168718 
2.23492 1.37305 -5.11722 -0.00695294 -0.0073623 -0.0120916 
2.96685 7.30181 -4.40224 0.00226636 -1.6615e-05 0.00429584 
2.07178 6.87932 -4.54489 0.0060241 -0.0104156 0.0114706 
3.61532 6.9438 -5.07404 0.000157618 0.010319 -0.00331015 
4.66589 6.04968 -6.04753 0.00162681 0.00189592 -0.0145258 
3.90954 5.39554 -6.04259 0.0076422 -0.00501868 -0.0164036 
4.7019 6.51095 -6.93406 -2.80449e-05 0.00180536 -0.0146421 
0.806759 6.15611 -6.07836 0.00258567 0.0016855 -0.00354214 
1.43274 5.41822 -6.33069 -0.00937922 -0.00514671 -0.0133864 
-0.13643 5.83075 -6.14569 -0.00215996 0.013289 0.00691826 
9.4966 7.22193 -4.67622 0.00438534 0.000665355 -0.000770581 
-9.83328 6.53622 -4.39209 -0.0040605 -0.00970388 -0.00603568 
8.58097 6.82026 -4.65931 -0.000281302 0.0111607 -0.00591807 
8.3289 4.40595 -6.48448 -0.00358818 0.00126865 0.0012977 
8.45571 3.80171 -7.27113 0.00557786 0.0217359 -0.0129253 
7.86077 5.23987 -6.77676 -0.0172638 0.000574836 0.0211621 
-4.87882 -8.18853 -7.87243 -0.0015882 -0.00595878 0.000548002 
-5.34256 -7.71123 -8.61885 -0.00707655 -0.00111878 0.00702491 
-2.95489 -0.948658 8.7167 0.00532061 0.00614747 0.00634079 
1.00507 -3.05553 -9.48149 0.0276653 -0.00633144 -0.000738202 
1.86911 -1.63075 9.67744 0.00705754 0.00516275 -0.00285499 
2.7791 -1.25353 9.50532 0.00147719 0.0261047 0.0137846 
1.17574 -0.951386 9.4372 -0.00392677 -0.00585975 -0.00245775 
0.035181 -9.11592 -9.06092 -0.000721644 0.00567379 -0.000911354 
0.931222 -6.54138 -8.9422 -0.00228899 -0.00301561 -0.00735793 
0.730449 -5.58143 -9.13762 0.0077654 -0.00210679 -0.0131836 
3.82779 -7.18361 -8.44519 -5.4469e-05 -0.00155853 0.00292158 
3.88554 -8.03406 -7.92231 0.0144775 -0.0121793 -0.0163506 
2.94785 -7.14239 -8.91848 1.25391e-06 -0.00660095 0.00239967 
0.676833 -9.43484 -8.36338 0.00353008 -0.0136239 -0.0136895 
0.221934 -8.15643 -9.2719 0.0152854 0.00385793 0.00511748 
0.172803 1.31918 -9.56393 -0.000723004 0.00443359 -0.0136426 
-0.446682 5.38671 10.0364 0.00764147 -0.000449897 -0.00251098 
0.657349 2.68383 -8.54028 0.00101644 0.0025596 -0.00251465 
0.238761 2.56625 -7.63974 0.0203394 0.00922741 0.00742361 
4.96987 2.78635 -8.17548 -0.00763648 0.0108822 -0.00144577 
9.86266 1.22608 9.04794 -0.0116415 -0.00504579 -0.00113586 
4.25919 -0.176484 9.6218 -0.00267012 -0.00479593 0.000602049 
4.58582 -0.382853 -9.45585 -0.0101144 -0.0133545 0.00129338 
4.85279 0.51138 9.20409 0.0067453 -0.00856266 0.00789176 
0.190863 3.41961 -9.03121 -0.0100127 -0.00154042 0.00191406 
ITEM: TIMESTEP
2000
ITEM: NUMBER OF ATOMS
300
ITEM: BOX BOUNDS pp pp pp
-9.9943299999999997e+00 1.0005670000000000e+01
-9.9461431999999999e+00 1.0053856800000000e+01
-9.7533399999999997e+00 1.0246660000000000e+01
ITEM: ATOMS x y z vx vy vz 
-7.29825 -7.79836 -4.92315 -0.00254014 -0.00111557 0.00266209 
-6.92071 -8.21322 -4.09528 0.0173988 0.00981968 -0.00105283 
-6.68268 -7.9697 -5.69238 -0.00843261 0.0110606 -0.00471036 
-2.34011 -4.03567 -8.09667 0.0079323 -0.000748207 -0.00130907 
-1.71295 -3.25929 -8.15923 0.0338126 -0.022468 -0.00919845 
-2.01381 -4.67232 -7.39794 -0.0088607 -0.00856745 -0.000693182 
-3.2728 0.568918 -6.34849 0.0048084 0.00309531 -0.000999272 
-3.69177 0.00308861 -7.05863 0.0183907 -0.00101322 -0.00581956 
9.54951 -7.89448 -7.07242 -0.0044872 -0.00180392 0.00354135 
9.49649 -6.94582 -6.76057 -0.0109578 0.00791465 -0.0268104 
8.65623 -8.33102 -6.96521 -0.0115267 0.00704589 -0.0185942 
-2.09265 -7.28035 -3.83325 0.00153003 0.00810302 8.43588e-05 
-2.93365 -7.57844 -3.38174 0.00571073 0.00325292 0.00463509 
-1.40029 -7.06999 -3.14305 0.00552503 0.00775284 -0.00383834 
-4.43835 -3.12363 -6.09458 0.00104285 0.00256267 -0.00582498 
-4.03479 -2.94068 -6.99105 0.00357545 -0.00408236 -0.00600042 
-4.08061 -3.98661 -5.73781 -0.00858838 -0.000371432 -0.00344209 
9.87731 -0.803952 -7.14036 -0.00591075 0.00018198 0.00302921 
-10.0837 -0.348426 -6.251 -0.0148728 0.00988385 -0.00152223 
-9.88749 -0.150729 -7.86007 -0.00580651 -0.00576383 -0.00233033 
-8.21811 -0.437074 -9.37497 -0.00308642 0.0103306 -0.0118845 
-9.02812 -3.77007 -6.89257 0.00274154 0.000987475 0.00689868 
10.0897 -3.73503 -7.36223 0.00779256 0.00694116 -0.00221199 
-8.50207 -2.94776 -7.10954 0.00377871 0.00521771 0.025574 
-4.95444 -5.47091 -1.4741 0.000775156 0.000614131 -0.0032717 
-5.00178 -5.2782 -0.493983 0.000391576 0.0144303 -0.00603665 
-5.87919 -5.59072 -1.83532 0.000736102 -0.000426721 -0.00284214 
-1.78873 -8.72854 -5.0969 -0.00011524 -0.00161112 -0.0143083 
-8.71695 -5.47625 -4.77429 -0.00110794 0.000380772 -0.00536169 
-8.14393 -6.26884 -4.98275 0.000177288 -0.00406621 0.0151739 
-8.65665 -4.81534 -5.52234 0.0388977 0.00444819 0.00130636 
-2.85767 -3.49094 -3.22459 -0.0034613 0.00127962 -0.00182783 
-1.94216 -3.74645 -2.91387 -0.00476221 -0.00769019 -0.00539177 
-3.2764 -4.26472 -3.69993 -0.00540382 0.0117597 -0.0171484 
-4.29337 -5.36355 -4.65234 0.000346412 -0.00170443 -0.000318057 
-4.11162 -6.32534 -4.44759 0.000769292 -0.00219935 -0.0030194 
-5.14645 -5.08433 -4.21155 -0.0171982 -0.0125342 -0.027493 
-5.84566 1.44748 -9.28795 -0.00740044 5.61116e-05 0.00117297 
-4.86205 1.30295 -9.39582 -0.0114193 -0.0202829 -0.00774001 
-4.00103 -1.32586 -2.18727 0.00532213 -0.00736011 -0.000239736 
-3.93724 -2.23166 -2.60616 -0.019153 -0.00956157 0.00037561 
-4.66232 -1.35113 -1.43756 -0.000566339 0.012709 -0.00469262 
-4.94867 -7.50602 -2.13173 0.00138932 -0.00129119 -0.00104627 
8.22592 -5.08554 -5.86076 -0.000547909 0.00226681 -0.0035465 
-2.13443 -6.22913 -5.42703 6.03511e-05 0.00982995 0.00408423 
-7.95203 -5.37456 -3.00821 0.00143351 0.0130421 0.000449814 
9.33492 -5.55065 -4.756 0.000991424 -0.0177399 -0.0135164 
-8.3251 0.485554 -9.00441 -0.00473269 0.00390814 0.00369701 
-7.53869 -5.67635 -2.14909 -0.00126158 0.00156889 -0.00230083 
-4.74324 -8.00417 -2.97413 0.00445506 -0.00240257 0.000358301 
-3.69665 -6.70121 -9.43776 -0.0003504 0.0120808 -0.00725718 
-1.96771 -6.02905 -6.39252 0.00120048 0.00366007 0.00300573 
-2.42254 -6.71642 -6.95877 -0.00835562 0.00714575 0.0065435 
-3.57204 1.51682 -6.45781 -0.00599558 -0.000453133 -0.00225255 
-6.05742 2.41513 -9.42512 0.0115025 0.00445687 0.00352326 
-7.10453 0.666715 -6.89575 0.0208843 0.0243525 0.00674627 
-5.70865 -1.1463 -4.68642 0.000616149 -0.00244565 -0.00487781 
-1.5961 0.96858 -7.24356 0.02444 0.0242645 0.0154383 
-6.46937 -7.99039 -7.97567 0.000453453 -0.0126491 -0.000529909 
-5.16869 -7.10118 -7.54643 -0.00644251 0.00488653 -0.01589 
-2.72146 -6.95711 9.18465 -0.000408763 -0.00311602 0.0061882 
-2.21608 -7.79792 9.37863 0.0163631 0.00540537 -0.000667033 
-9.26059 -9.82326 -5.41376 -0.00292654 -0.000158325 -0.00208831 
-8.45673 -9.23797 -5.30767 -0.01049 0.0105097 -0.00394941 
-9.78504 -9.52776 -6.21229 0.00726947 -0.0257545 -0.0183177 
-8.68996 8.26613 -4.27395 0.0118586 0.00369813 0.0163313 
-4.19639 -6.32884 -8.65572 -0.0027088 -0.00392768 -0.00117036 
-4.00167 -5.3517 -8.5703 -0.0211705 -0.00081709 0.00548998 
8.42937 -5.7422 -5.13453 -0.00526957 -0.00221857 -0.00626301 
-7.72099 -6.65048 -2.01556 2.9347e-05 -0.00069779 -0.0169003 
-1.4841 -1.73268 -1.30993 -0.000961301 0.0034609 0.0011435 
-0.773226 -8.99657 9.71645 -0.00620994 0.00429713 -0.00104096 
8.15817 9.52308 -3.06984 0.00656367 -0.0109218 -0.00716871 
6.48806 7.95118 -7.02302 -0.000733492 -0.00315852 0.00196014 
7.28153 7.34472 -6.97169 0.00565291 0.00408797 -0.0103517 
0.964796 -6.55465 -6.8835 0.000708621 0.00218836 0.000939931 
-0.0104367 -6.33506 -6.857 -0.000132692 -0.00127854 -0.00115908 
1.30966 -6.65374 -5.95009 -0.000685997 0.004569 0.00171338 
1.83303 -7.0611 -4.28915 -0.00458355 -0.0002407 -0.00443331 
1.31196 -6.57649 -3.58656 -0.0126887 -0.00419227 -0.00777297 
1.88623 -8.03176 -4.05464 0.00945585 0.00178806 0.000891598 
7.07448 -9.05895 -6.33856 -0.00426206 -0.0043266 0.00480292 
7.11945 -10.0523 -6.23275 0.0145883 -0.00340414 0.00628802 
7.04027 -8.62884 -5.43643 0.00871853 -0.00279978 0.00462357 
6.19766 -5.05611 -9.5165 0.00183717 -0.00168615 -0.00516595 
6.0058 -5.87561 -8.97649 0.00389679 0.00611693 0.00746469 
4.35473 -4.10277 -8.9957 -0.0018546 -0.00259369 0.00563906 
3.61388 -3.88919 -5.86735 -0.00712254 0.00286928 0.00288747 
3.55327 -4.06661 -6.84962 0.00729625 0.016156 -0.000384955 
4.18755 -4.5864 -5.43745 -0.0262709 -0.0119953 0.00428702 
-0.0330626 -5.82574 -9.4851 -0.00308519 -0.00316663 0.000523078 
0.461618 -5.93969 -8.62353 0.00624227 -0.00603791 -0.00521604 
-0.839585 -5.25434 -9.33335 0.00630747 0.0080078 0.00823057 
0.109206 -6.57133 -2.22878 0.00400241 0.00125145 -0.00588043 
-0.246996 -5.64054 -2.31098 0.0139777 0.00365422 -0.0209611 
0.456267 -6.7148 -1.30198 0.00177206 0.0122709 -0.00331589 
-1.69654 -0.767687 -4.61654 -0.00358054 0.00357363 0.00362472 
-2.22388 -1.56032 -4.31054 -0.011607 0.00887683 0.00356485 
4.74982 -6.46916 -5.24963 0.00280372 0.00113881 0.00386663 
3.80719 -6.70977 -5.01817 0.0052118 0.00388791 0.0163592 
5.36054 -6.77285 -4.51833 0.0149131 -0.0279925 -0.0187425 
1.00144 -0.383313 -4.14788 0.00390872 -0.00287808 0.00216259 
1.21434 -0.843563 -3.286 0.00486503 -0.00924664 -0.00151045 
-1.11771 -0.80836 -1.20319 -0.0024998 0.00474726 -0.00479237 
6.88028 -7.70698 -4.06206 0.000761911 0.00148371 -0.00682651 
7.48132 -8.38738 -3.64277 -0.00214892 0.0072788 0.00678295 
7.36935 -6.83915 -4.14987 -0.0157505 0.0154046 0.0340899 
2.12675 -3.26139 -3.3287 0.00384235 -0.000888292 -0.00957627 
2.86825 -2.75874 -2.88428 -0.00668439 0.00611485 0.000108502 
2.3934 -3.49011 -4.26497 0.0138936 0.0111328 -0.00966584 
5.42715 8.43865 -3.24557 -3.95743e-05 -0.00697308 -0.000301406 
5.77695 9.36727 -3.1219 -0.00273141 -0.00689663 0.00663906 
6.18277 7.82587 -3.47699 0.00261036 -0.00420092 0.00103842 
8.15074 -4.17036 -7.55903 0.000527198 -0.00757498 0.00949341 
7.31929 -4.4209 -8.05493 -0.00285248 -0.00467686 0.0136595 
8.23507 -3.1743 -7.53144 0.0100747 -0.00807892 -0.000693247 
5.51643 -6.98568 -7.6711 0.000282003 -0.00041909 0.00105716 
6.132 -7.75566 -7.50317 -0.0141771 -0.0122203 -0.000398471 
5.16363 -6.64477 -6.79972 -0.00443442 -0.00446223 0.000722994 
-0.283948 -3.97068 -2.26716 -0.00588404 -0.000281692 0.00204706 
0.658342 -3.66026 -2.39258 -0.00144243 -0.0168287 -0.00481242 
-0.792442 -3.28863 -1.74157 0.00780112 0.0122439 -0.00121689 
8.46285 -9.54972 -3.28773 -0.000824415 -0.00732469 -0.0021596 
9.34352 -9.59052 -3.75972 0.0101924 0.0032932 0.0172529 
-8.40973 -8.33948 -2.15147 -0.0014091 0.00100804 0.00608298 
-8.32234 -9.31181 -2.36814 -0.011244 0.00178123 -0.00142603 
0.0336132 -0.511857 -4.36421 0.00221528 0.0040816 0.00551561 
-2.29357 -0.14538 -5.1228 0.00442039 0.00601723 -0.00276676 
-0.387566 -8.08085 9.8293 -0.00615883 0.00395683 0.00153809 
2.58218 -9.888 -9.00187 0.0173072 -0.0112686 0.012177 
-9.36414 -8.05942 -2.25469 0.00275852 0.0132442 0.000667429 
3.6101 -9.40715 -4.56196 0.00195869 0.00237043 0.0158673 
3.41318 -3.90585 -8.72238 -0.0052241 -0.00171964 -0.00642161 
2.83091 -4.68769 -8.94531 -0.00645196 0.00623963 -0.0307155 
-0.655536 -9.51457 -9.43631 -0.00309761 0.000714943 -0.00367 
3.29847 6.95346 -8.7804 0.000111414 0.00420557 0.00427662 
2.89221 9.61722 10.1863 -0.00223133 -0.0030368 -0.000266631 
2.36792 9.92056 9.3906 -0.0201241 0.00631505 0.0151208 
5.99062 9.55513 -9.10981 0.00286655 0.00333685 -0.000925799 
6.03357 8.89066 -8.36373 0.00564682 0.0092567 0.00414515 
5.06356 9.57658 -9.48412 0.00273986 -0.00331489 -0.00100027 
3.89218 6.92889 -7.9761 0.00912958 -0.0071865 -0.00265218 
3.21544 7.89574 -9.10477 0.0118522 0.00627744 0.00721541 
3.21847 -2.31841 -8.13908 0.0247715 -0.00394744 -0.00674126 
-4.27773 3.56984 -7.09687 -0.00660843 0.0141028 0.00212032 
-3.71636 3.17064 -6.37195 4.84902e-05 0.00958007 -0.00550103 
-2.81667 3.60716 -6.36845 0.000121843 0.00951148 -0.0110997 
-7.38726 0.679694 -5.93663 0.00604165 0.00351627 0.00269593 
-6.92584 -0.0575324 -5.44308 0.00572608 -0.00122004 -0.00406737 
-3.27064 1.67481 -2.38956 -5.54161e-05 -0.00193743 0.000367831 
-3.54841 0.717761 -2.47265 -0.0152817 0.000857438 0.0189629 
-5.07916 -0.931627 -3.93965 -0.000267099 -0.0231151 0.00179469 
-5.3114 -1.86087 -5.26225 -0.00919449 -0.00328508 -0.0106024 
-5.77799 -7.84372 -7.26822 -0.000127908 0.00437275 -0.00349663 
-7.65003 8.57813 -8.38715 -0.00735836 0.00215514 -0.00686084 
-8.22293 9.34521 -8.67591 -0.00431436 -0.00075086 -0.0205644 
-2.50197 -6.64172 8.26142 -0.0148274 0.00302574 0.00486998 
-7.39543 2.96842 -4.48544 0.00225953 -0.00102164 0.000556143 
-7.67038 2.58238 -3.60489 -1.40513e-05 0.00251199 0.0013887 
-7.42091 2.25432 -5.18502 -0.00678553 -0.00122599 0.00109114 
-1.59362 -9.69718 -5.25073 -0.00090813 -0.00430939 0.001026 
-2.40805 9.76146 -5.04184 0.004206 -0.00208014 0.0267465 
-0.217959 9.75422 -7.4893 -0.00372225 0.00169542 -0.00139108 
0.581814 10.344 -7.37751 -0.0183422 0.0221802 -0.0036935 
-0.838471 -10.1162 -6.71588 0.00629084 -0.0315329 0.0121441 
-4.8743 3.57419 -4.0022 -0.00644896 -0.00484462 0.00107485 
-5.85482 3.56298 -4.19832 -0.00731587 -0.00203776 0.00518018 
-4.36372 3.4074 -4.8457 -0.0100823 0.0155723 -0.00520985 
-3.5208 5.97043 -3.90962 -0.00300145 -0.00117266 -0.00467319 
-2.58227 5.74096 -3.65172 -0.0016032 -0.00589022 -0.0137153 
-4.10143 5.16265 -3.80791 -0.00684035 0.00262539 0.004163 
-0.30607 6.14354 -7.27813 0.00729231 -0.0108613 0.000537899 
-3.95335 8.48608 -4.7721 -0.00181151 -0.00321214 0.00281914 
-4.48522 8.62382 -5.60765 0.00430444 -0.00891656 -0.00203962 
-3.87901 7.50716 -4.58184 -0.00617474 -0.00179606 0.0120079 
-1.23241 6.66257 -8.65052 -0.00202433 -0.00381868 0.00372038 
-0.527722 6.10054 -9.08359 -0.0024132 -0.0108584 0.0121638 
-1.01162 7.6297 -8.77666 0.00217001 -0.00591887 -0.00506466 
-4.77334 5.6994 -1.39613 0.00333168 0.00550998 -0.000639292 
-4.46345 6.35127 -2.08825 -0.00927175 0.00128795 -0.0102861 
-4.10297 4.96259 -1.30831 0.0084292 0.0098006 -0.00321395 
-3.71532 2.21426 -3.10459 0.00334153 -0.00751431 -0.00598765 
-5.41729 9.36957 -7.02431 0.00758392 0.00598051 0.00204167 
-6.23689 8.98655 -7.45041 0.00225449 0.00731195 0.0110605 