LAMMPS (16 Jul 2018)
units real
atom_style full
timestep 2

dimension 3
boundary p p p

bond_style hybrid harmonic
angle_style hybrid harmonic
special_bonds lj 0.0 0.0 0.5 coul 0.0 0.0 0.5

read_data water.lmp
  orthogonal box = (-9.99433 -9.94614 -9.75334) to (10.0057 10.0539 10.2467)
  1 by 1 by 1 MPI processor grid
  reading atoms ...
  300 atoms
  reading velocities ...
  300 velocities
  scanning bonds ...
  2 = max bonds/atom
  scanning angles ...
  1 = max angles/atom
  reading bonds ...
  200 bonds
  reading angles ...
  100 angles
  2 = max # of 1-2 neighbors
  1 = max # of 1-3 neighbors
  1 = max # of 1-4 neighbors
  2 = max # of special neighbors

pair_style lj/cut/coul/long 15.0 15.0
pair_modify tail yes
kspace_style pppm 1e-8

pair_coeff 1 1   0.1554001   3.1655700
pair_coeff 2 2   0.0000000   0.0000000

pair_modify mix geometric

fix settle all shake 0.000001 100 0 t 1 2 a 1 2 3 4 5 6 7 8 9 10  11 12 13 14 15 16 17 18 19 20  21 22 23 24 25 26 27 28 29 30  31 32 33 34 35 36 37 38 39 40  41 42 43 44 45 46 47 48 49 50  51 52 53 54 55 56 57 58 59 60  61 62 63 64 65 66 67 68 69 70  71 72 73 74 75 76 77 78 79 80  81 82 83 84 85 86 87 88 89 90  91 92 93 94 95 96 97 98 99 100
  0 = # of size 2 clusters
  0 = # of size 3 clusters
  0 = # of size 4 clusters
  100 = # of frozen angles
fix 1 all nvt temp 1.0 300.0 100.0

run 100
PPPM initialization ...
  using 12-bit tables for long-range coulomb (../kspace.cpp:321)
WARNING: For better accuracy use 'pair_modify table 0' (../kspace.cpp:342)
  G vector (1/distance) = 0.260442
  grid = 45 45 45
  stencil order = 5
  estimated absolute RMS force accuracy = 1.12127e-05
  estimated relative force accuracy = 3.37668e-08
  using double precision FFTs
  3d grid and FFT values/proc = 157464 91125
Neighbor list info ...
  update every 1 steps, delay 10 steps, check yes
  max neighbors/atom: 2000, page size: 100000
  master list distance cutoff = 17
  ghost atom cutoff = 17
  binsize = 8.5, bins = 3 3 3
  1 neighbor lists, perpetual/occasional/extra = 1 0 0
  (1) pair lj/cut/coul/long, perpetual
      attributes: half, newton on
      pair build: half/bin/newton
      stencil: half/bin/3d/newton
      bin: standard
Per MPI rank memory allocation (min/avg/max) = 22.07 | 22.07 | 22.07 Mbytes
Step Temp E_pair E_mol TotEng Press 
       0            0   -970.78082            0   -970.78082   -651.37695 
     100    162.74291   -1112.5549            0   -1016.0188   -331.84879 
Loop time of 6.56689 on 1 procs for 100 steps with 300 atoms

Performance: 2.631 ns/day, 9.121 hours/ns, 15.228 timesteps/s
99.9% CPU use with 1 MPI tasks x no OpenMP threads

MPI task timing breakdown:
Section |  min time  |  avg time  |  max time  |%varavg| %total
---------------------------------------------------------------
Pair    | 0.41307    | 0.41307    | 0.41307    |   0.0 |  6.29
Bond    | 0.00039697 | 0.00039697 | 0.00039697 |   0.0 |  0.01
Kspace  | 6.1119     | 6.1119     | 6.1119     |   0.0 | 93.07
Neigh   | 0.019245   | 0.019245   | 0.019245   |   0.0 |  0.29
Comm    | 0.011112   | 0.011112   | 0.011112   |   0.0 |  0.17
Output  | 8.7023e-05 | 8.7023e-05 | 8.7023e-05 |   0.0 |  0.00
Modify  | 0.009346   | 0.009346   | 0.009346   |   0.0 |  0.14
Other   |            | 0.001764   |            |       |  0.03

Nlocal:    300 ave 300 max 300 min
Histogram: 1 0 0 0 0 0 0 0 0 0
Nghost:    5361 ave 5361 max 5361 min
Histogram: 1 0 0 0 0 0 0 0 0 0
Neighs:    105494 ave 105494 max 105494 min
Histogram: 1 0 0 0 0 0 0 0 0 0

Total # of neighbors = 105494
Ave neighs/atom = 351.647
Ave special neighs/atom = 2
Neighbor list builds = 3
Dangerous builds = 0

fix 1 all nvt temp 300.0 300.0 100.0

run 300
PPPM initialization ...
  using 12-bit tables for long-range coulomb (../kspace.cpp:321)
WARNING: For better accuracy use 'pair_modify table 0' (../kspace.cpp:342)
  G vector (1/distance) = 0.260442
  grid = 45 45 45
  stencil order = 5
  estimated absolute RMS force accuracy = 1.12127e-05
  estimated relative force accuracy = 3.37668e-08
  using double precision FFTs
  3d grid and FFT values/proc = 157464 91125
Per MPI rank memory allocation (min/avg/max) = 22.07 | 22.07 | 22.07 Mbytes
Step Temp E_pair E_mol TotEng Press 
     100    162.74291   -1112.5549            0   -1016.0188   -331.19293 
     400    341.08491   -1011.2674            0    -808.9422   -592.30459 
Loop time of 19.9593 on 1 procs for 300 steps with 300 atoms

Performance: 2.597 ns/day, 9.240 hours/ns, 15.031 timesteps/s
99.3% CPU use with 1 MPI tasks x no OpenMP threads

MPI task timing breakdown:
Section |  min time  |  avg time  |  max time  |%varavg| %total
---------------------------------------------------------------
Pair    | 1.2487     | 1.2487     | 1.2487     |   0.0 |  6.26
Bond    | 0.0013156  | 0.0013156  | 0.0013156  |   0.0 |  0.01
Kspace  | 18.534     | 18.534     | 18.534     |   0.0 | 92.86
Neigh   | 0.10593    | 0.10593    | 0.10593    |   0.0 |  0.53
Comm    | 0.035928   | 0.035928   | 0.035928   |   0.0 |  0.18
Output  | 0.00016117 | 0.00016117 | 0.00016117 |   0.0 |  0.00
Modify  | 0.027593   | 0.027593   | 0.027593   |   0.0 |  0.14
Other   |            | 0.005311   |            |       |  0.03

Nlocal:    300 ave 300 max 300 min
Histogram: 1 0 0 0 0 0 0 0 0 0
Nghost:    5368 ave 5368 max 5368 min
Histogram: 1 0 0 0 0 0 0 0 0 0
Neighs:    106217 ave 106217 max 106217 min
Histogram: 1 0 0 0 0 0 0 0 0 0

Total # of neighbors = 106217
Ave neighs/atom = 354.057
Ave special neighs/atom = 2
Neighbor list builds = 16
Dangerous builds = 1

thermo_style multi
thermo 100
dump myDump all custom 1000 dump.atom x y z vx vy vz

run 200000
PPPM initialization ...
  using 12-bit tables for long-range coulomb (../kspace.cpp:321)
WARNING: For better accuracy use 'pair_modify table 0' (../kspace.cpp:342)
  G vector (1/distance) = 0.260442
  grid = 45 45 45
  stencil order = 5
  estimated absolute RMS force accuracy = 1.12127e-05
  estimated relative force accuracy = 3.37668e-08
  using double precision FFTs
  3d grid and FFT values/proc = 157464 91125
Per MPI rank memory allocation (min/avg/max) = 22.07 | 22.07 | 22.07 Mbytes
---------------- Step      400 ----- CPU =      0.0000 (sec) ----------------
TotEng   =      -808.9422 KinEng   =       202.3252 Temp     =       341.0849 
PotEng   =     -1011.2674 E_bond   =         0.0000 E_angle  =         0.0000 
E_dihed  =         0.0000 E_impro  =         0.0000 E_vdwl   =       195.9256 
E_coul   =      4044.4966 E_long   =     -5251.6895 Press    =      -592.1935 
---------------- Step      500 ----- CPU =      6.9120 (sec) ----------------
TotEng   =      -828.6133 KinEng   =       153.2861 Temp     =       258.4136 
PotEng   =      -981.8993 E_bond   =         0.0000 E_angle  =         0.0000 
E_dihed  =         0.0000 E_impro  =         0.0000 E_vdwl   =       200.9768 
E_coul   =      4064.4585 E_long   =     -5247.3347 Press    =      -342.6287 
---------------- Step      600 ----- CPU =     13.7412 (sec) ----------------
TotEng   =      -800.2965 KinEng   =       178.8122 Temp     =       301.4462 
PotEng   =      -979.1087 E_bond   =         0.0000 E_angle  =         0.0000 
E_dihed  =         0.0000 E_impro  =         0.0000 E_vdwl   =       188.0925 
E_coul   =      4081.5312 E_long   =     -5248.7324 Press    =      -565.4458 
---------------- Step      700 ----- CPU =     20.5439 (sec) ----------------
TotEng   =      -785.3043 KinEng   =       186.8070 Temp     =       314.9241 
PotEng   =      -972.1113 E_bond   =         0.0000 E_angle  =         0.0000 
E_dihed  =         0.0000 E_impro  =         0.0000 E_vdwl   =       208.1356 
E_coul   =      4067.9356 E_long   =     -5248.1825 Press    =       165.0043 
---------------- Step      800 ----- CPU =     26.9350 (sec) ----------------
TotEng   =      -821.1566 KinEng   =       166.2009 Temp     =       280.1857 
PotEng   =      -987.3575 E_bond   =         0.0000 E_angle  =         0.0000 
E_dihed  =         0.0000 E_impro  =         0.0000 E_vdwl   =       219.1420 
E_coul   =      4042.2831 E_long   =     -5248.7826 Press    =       368.5766 
---------------- Step      900 ----- CPU =     33.9407 (sec) ----------------
TotEng   =      -805.5468 KinEng   =       189.4315 Temp     =       319.3485 
PotEng   =      -994.9784 E_bond   =         0.0000 E_angle  =         0.0000 
E_dihed  =         0.0000 E_impro  =         0.0000 E_vdwl   =       196.8360 
E_coul   =      4056.8522 E_long   =     -5248.6665 Press    =      -286.4514 
---------------- Step     1000 ----- CPU =     40.9273 (sec) ----------------
TotEng   =      -832.5974 KinEng   =       167.2064 Temp     =       281.8808 
PotEng   =      -999.8038 E_bond   =         0.0000 E_angle  =         0.0000 
E_dihed  =         0.0000 E_impro  =         0.0000 E_vdwl   =       197.7488 
E_coul   =      4052.5046 E_long   =     -5250.0573 Press    =      -623.5221 
---------------- Step     1100 ----- CPU =     47.7381 (sec) ----------------
TotEng   =      -817.4669 KinEng   =       183.9354 Temp     =       310.0830 
PotEng   =     -1001.4022 E_bond   =         0.0000 E_angle  =         0.0000 
E_dihed  =         0.0000 E_impro  =         0.0000 E_vdwl   =       246.1800 
E_coul   =      4002.0344 E_long   =     -5249.6167 Press    =       989.4419 
---------------- Step     1200 ----- CPU =     54.5622 (sec) ----------------
TotEng   =      -804.8520 KinEng   =       182.2022 Temp     =       307.1612 
PotEng   =      -987.0542 E_bond   =         0.0000 E_angle  =         0.0000 
E_dihed  =         0.0000 E_impro  =         0.0000 E_vdwl   =       194.3332 
E_coul   =      4066.8211 E_long   =     -5248.2085 Press    =      -328.7459 
---------------- Step     1300 ----- CPU =     61.4248 (sec) ----------------
TotEng   =      -811.1001 KinEng   =       173.2896 Temp     =       292.1361 
PotEng   =      -984.3897 E_bond   =         0.0000 E_angle  =         0.0000 
E_dihed  =         0.0000 E_impro  =         0.0000 E_vdwl   =       189.0556 
E_coul   =      4073.6814 E_long   =     -5247.1267 Press    =      -604.9664 
---------------- Step     1400 ----- CPU =     68.6189 (sec) ----------------
TotEng   =      -812.9342 KinEng   =       181.5110 Temp     =       305.9959 
PotEng   =      -994.4452 E_bond   =         0.0000 E_angle  =         0.0000 
E_dihed  =         0.0000 E_impro  =         0.0000 E_vdwl   =       204.4996 
E_coul   =      4049.2020 E_long   =     -5248.1468 Press    =      -230.0250 
---------------- Step     1500 ----- CPU =     75.4852 (sec) ----------------
TotEng   =      -827.1658 KinEng   =       179.9160 Temp     =       303.3070 
PotEng   =     -1007.0818 E_bond   =         0.0000 E_angle  =         0.0000 
E_dihed  =         0.0000 E_impro  =         0.0000 E_vdwl   =       210.0608 
E_coul   =      4032.8822 E_long   =     -5250.0248 Press    =      -119.5416 
---------------- Step     1600 ----- CPU =     82.3463 (sec) ----------------
TotEng   =      -844.5570 KinEng   =       162.1498 Temp     =       273.3563 
PotEng   =     -1006.7068 E_bond   =         0.0000 E_angle  =         0.0000 
E_dihed  =         0.0000 E_impro  =         0.0000 E_vdwl   =       212.5515 
E_coul   =      4029.8340 E_long   =     -5249.0923 Press    =         7.8300 
---------------- Step     1700 ----- CPU =     88.9804 (sec) ----------------
TotEng   =      -808.5050 KinEng   =       174.1005 Temp     =       293.5030 
PotEng   =      -982.6055 E_bond   =         0.0000 E_angle  =         0.0000 
E_dihed  =         0.0000 E_impro  =         0.0000 E_vdwl   =       204.9558 
E_coul   =      4060.8021 E_long   =     -5248.3635 Press    =        63.3384 
---------------- Step     1800 ----- CPU =     95.5455 (sec) ----------------
TotEng   =      -812.5234 KinEng   =       181.3359 Temp     =       305.7007 
PotEng   =      -993.8593 E_bond   =         0.0000 E_angle  =         0.0000 
E_dihed  =         0.0000 E_impro  =         0.0000 E_vdwl   =       193.6451 
E_coul   =      4060.6041 E_long   =     -5248.1084 Press    =      -491.8032 
---------------- Step     1900 ----- CPU =    102.5631 (sec) ----------------
TotEng   =      -849.4437 KinEng   =       163.7210 Temp     =       276.0050 
PotEng   =     -1013.1647 E_bond   =         0.0000 E_angle  =         0.0000 
E_dihed  =         0.0000 E_impro  =         0.0000 E_vdwl   =       204.5915 
E_coul   =      4032.3482 E_long   =     -5250.1044 Press    =      -483.0319 
---------------- Step     2000 ----- CPU =    109.7470 (sec) ----------------
TotEng   =      -817.2176 KinEng   =       177.8055 Temp     =       299.7490 
PotEng   =      -995.0231 E_bond   =         0.0000 E_angle  =         0.0000 
E_dihed  =         0.0000 E_impro  =         0.0000 E_vdwl   =       187.2559 
E_coul   =      4068.1570 E_long   =     -5250.4360 Press    =      -696.8209 
---------------- Step     2100 ----- CPU =    116.4684 (sec) ----------------
TotEng   =      -790.1964 KinEng   =       199.0307 Temp     =       335.5310 
PotEng   =      -989.2271 E_bond   =         0.0000 E_angle  =         0.0000 
E_dihed  =         0.0000 E_impro  =         0.0000 E_vdwl   =       225.0478 
E_coul   =      4034.1745 E_long   =     -5248.4494 Press    =       331.7471 
---------------- Step     2200 ----- CPU =    123.2352 (sec) ----------------
TotEng   =      -815.8189 KinEng   =       176.0856 Temp     =       296.8495 
PotEng   =      -991.9044 E_bond   =         0.0000 E_angle  =         0.0000 
E_dihed  =         0.0000 E_impro  =         0.0000 E_vdwl   =       172.4548 
E_coul   =      4085.5386 E_long   =     -5249.8978 Press    =     -1251.3747 
---------------- Step     2300 ----- CPU =    130.0331 (sec) ----------------
TotEng   =      -784.8809 KinEng   =       191.8689 Temp     =       323.4575 
PotEng   =      -976.7498 E_bond   =         0.0000 E_angle  =         0.0000 
E_dihed  =         0.0000 E_impro  =         0.0000 E_vdwl   =       197.8407 
E_coul   =      4074.6765 E_long   =     -5249.2670 Press    =       -80.4404 
---------------- Step     2400 ----- CPU =    136.1129 (sec) ----------------
TotEng   =      -788.2362 KinEng   =       173.9967 Temp     =       293.3281 
PotEng   =      -962.2329 E_bond   =         0.0000 E_angle  =         0.0000 
E_dihed  =         0.0000 E_impro  =         0.0000 E_vdwl   =       197.8196 
E_coul   =      4089.0368 E_long   =     -5249.0893 Press    =      -166.9138 
---------------- Step     2500 ----- CPU =    141.5224 (sec) ----------------
TotEng   =      -796.4501 KinEng   =       175.9111 Temp     =       296.5554 
PotEng   =      -972.3612 E_bond   =         0.0000 E_angle  =         0.0000 
E_dihed  =         0.0000 E_impro  =         0.0000 E_vdwl   =       191.0525 
E_coul   =      4084.8458 E_long   =     -5248.2594 Press    =      -473.2763 
---------------- Step     2600 ----- CPU =    147.1076 (sec) ----------------
TotEng   =      -820.3249 KinEng   =       181.5732 Temp     =       306.1008 
PotEng   =     -1001.8981 E_bond   =         0.0000 E_angle  =         0.0000 
E_dihed  =         0.0000 E_impro  =         0.0000 E_vdwl   =       208.5345 
E_coul   =      4040.6356 E_long   =     -5251.0681 Press    =       -11.5630 
---------------- Step     2700 ----- CPU =    153.3095 (sec) ----------------
TotEng   =      -852.8553 KinEng   =       165.8780 Temp     =       279.6414 
PotEng   =     -1018.7334 E_bond   =         0.0000 E_angle  =         0.0000 
E_dihed  =         0.0000 E_impro  =         0.0000 E_vdwl   =       209.1658 
E_coul   =      4019.4704 E_long   =     -5247.3696 Press    =      -157.0017 
---------------- Step     2800 ----- CPU =    160.1180 (sec) ----------------
TotEng   =      -831.3312 KinEng   =       170.6636 Temp     =       287.7091 
PotEng   =     -1001.9948 E_bond   =         0.0000 E_angle  =         0.0000 
E_dihed  =         0.0000 E_impro  =         0.0000 E_vdwl   =       205.5395 
E_coul   =      4041.6048 E_long   =     -5249.1392 Press    =      -370.7411 
---------------- Step     2900 ----- CPU =    166.8816 (sec) ----------------
TotEng   =      -812.8171 KinEng   =       179.9805 Temp     =       303.4158 
PotEng   =      -992.7976 E_bond   =         0.0000 E_angle  =         0.0000 
E_dihed  =         0.0000 E_impro  =         0.0000 E_vdwl   =       188.6027 
E_coul   =      4069.4479 E_long   =     -5250.8483 Press    =      -745.6678 
---------------- Step     3000 ----- CPU =    173.9116 (sec) ----------------
TotEng   =      -785.9088 KinEng   =       184.5445 Temp     =       311.1098 
PotEng   =      -970.4533 E_bond   =         0.0000 E_angle  =         0.0000 
E_dihed  =         0.0000 E_impro  =         0.0000 E_vdwl   =       175.5230 
E_coul   =      4103.9350 E_long   =     -5249.9113 Press    =      -876.2708 
---------------- Step     3100 ----- CPU =    180.8090 (sec) ----------------
TotEng   =      -790.1180 KinEng   =       170.4648 Temp     =       287.3739 
PotEng   =      -960.5828 E_bond   =         0.0000 E_angle  =         0.0000 
E_dihed  =         0.0000 E_impro  =         0.0000 E_vdwl   =       164.4682 
E_coul   =      4123.8590 E_long   =     -5248.9100 Press    =     -1098.1847 
---------------- Step     3200 ----- CPU =    187.6714 (sec) ----------------
TotEng   =      -815.1429 KinEng   =       160.6915 Temp     =       270.8979 
PotEng   =      -975.8344 E_bond   =         0.0000 E_angle  =         0.0000 
E_dihed  =         0.0000 E_impro  =         0.0000 E_vdwl   =       207.6386 
E_coul   =      4065.8266 E_long   =     -5249.2996 Press    =       -98.8072 
---------------- Step     3300 ----- CPU =    194.4902 (sec) ----------------
TotEng   =      -797.0654 KinEng   =       173.7463 Temp     =       292.9059 
PotEng   =      -970.8117 E_bond   =         0.0000 E_angle  =         0.0000 
E_dihed  =         0.0000 E_impro  =         0.0000 E_vdwl   =       193.8852 
E_coul   =      4081.4254 E_long   =     -5246.1224 Press    =      -551.4929 
---------------- Step     3400 ----- CPU =    201.0721 (sec) ----------------
TotEng   =      -782.2163 KinEng   =       171.0511 Temp     =       288.3624 
PotEng   =      -953.2674 E_bond   =         0.0000 E_angle  =         0.0000 
E_dihed  =         0.0000 E_impro  =         0.0000 E_vdwl   =       181.2376 
E_coul   =      4113.3725 E_long   =     -5247.8776 Press    =      -546.6999 
---------------- Step     3500 ----- CPU =    207.7012 (sec) ----------------
TotEng   =      -817.8577 KinEng   =       171.6100 Temp     =       289.3045 
PotEng   =      -989.4677 E_bond   =         0.0000 E_angle  =         0.0000 
E_dihed  =         0.0000 E_impro  =         0.0000 E_vdwl   =       193.5703 
E_coul   =      4065.8491 E_long   =     -5248.8871 Press    =      -663.7615 
---------------- Step     3600 ----- CPU =    214.2259 (sec) ----------------
TotEng   =      -798.2442 KinEng   =       174.6824 Temp     =       294.4841 
PotEng   =      -972.9267 E_bond   =         0.0000 E_angle  =         0.0000 
E_dihed  =         0.0000 E_impro  =         0.0000 E_vdwl   =       187.2409 
E_coul   =      4091.6053 E_long   =     -5251.7728 Press    =      -323.9064 
---------------- Step     3700 ----- CPU =    220.9224 (sec) ----------------
TotEng   =      -811.2318 KinEng   =       172.5571 Temp     =       290.9011 
PotEng   =      -983.7888 E_bond   =         0.0000 E_angle  =         0.0000 
E_dihed  =         0.0000 E_impro  =         0.0000 E_vdwl   =       185.3411 
E_coul   =      4080.7707 E_long   =     -5249.9007 Press    =      -431.7408 
---------------- Step     3800 ----- CPU =    227.3889 (sec) ----------------
TotEng   =      -816.4927 KinEng   =       177.8221 Temp     =       299.7771 
PotEng   =      -994.3148 E_bond   =         0.0000 E_angle  =         0.0000 
E_dihed  =         0.0000 E_impro  =         0.0000 E_vdwl   =       162.5281 
E_coul   =      4091.2915 E_long   =     -5248.1344 Press    =     -1216.1218 
---------------- Step     3900 ----- CPU =    233.0268 (sec) ----------------
TotEng   =      -786.8728 KinEng   =       210.7786 Temp     =       355.3359 
PotEng   =      -997.6513 E_bond   =         0.0000 E_angle  =         0.0000 
E_dihed  =         0.0000 E_impro  =         0.0000 E_vdwl   =       242.6050 
E_coul   =      4007.3724 E_long   =     -5247.6287 Press    =      1179.3490 
---------------- Step     4000 ----- CPU =    239.8919 (sec) ----------------
TotEng   =      -826.2366 KinEng   =       191.4522 Temp     =       322.7550 
PotEng   =     -1017.6888 E_bond   =         0.0000 E_angle  =         0.0000 
E_dihed  =         0.0000 E_impro  =         0.0000 E_vdwl   =       191.3300 
E_coul   =      4040.3645 E_long   =     -5249.3833 Press    =      -668.9582 
---------------- Step     4100 ----- CPU =    246.7546 (sec) ----------------
TotEng   =      -815.9454 KinEng   =       174.9275 Temp     =       294.8972 
PotEng   =      -990.8729 E_bond   =         0.0000 E_angle  =         0.0000 
E_dihed  =         0.0000 E_impro  =         0.0000 E_vdwl   =       176.2991 
E_coul   =      4082.4274 E_long   =     -5249.5994 Press    =      -945.1817 
---------------- Step     4200 ----- CPU =    253.9608 (sec) ----------------
TotEng   =      -815.3193 KinEng   =       186.1988 Temp     =       313.8988 
PotEng   =     -1001.5182 E_bond   =         0.0000 E_angle  =         0.0000 
E_dihed  =         0.0000 E_impro  =         0.0000 E_vdwl   =       215.9704 
E_coul   =      4031.0196 E_long   =     -5248.5082 Press    =       139.9399 
---------------- Step     4300 ----- CPU =    259.9654 (sec) ----------------
TotEng   =      -838.0265 KinEng   =       169.5062 Temp     =       285.7579 
PotEng   =     -1007.5327 E_bond   =         0.0000 E_angle  =         0.0000 
E_dihed  =         0.0000 E_impro  =         0.0000 E_vdwl   =       207.5716 
E_coul   =      4032.0068 E_long   =     -5247.1111 Press    =      -249.7115 
---------------- Step     4400 ----- CPU =    265.8362 (sec) ----------------
TotEng   =      -872.1385 KinEng   =       148.5240 Temp     =       250.3855 
PotEng   =     -1020.6625 E_bond   =         0.0000 E_angle  =         0.0000 
E_dihed  =         0.0000 E_impro  =         0.0000 E_vdwl   =       222.2117 
E_coul   =      4005.0760 E_long   =     -5247.9503 Press    =       184.4334 
---------------- Step     4500 ----- CPU =    272.5764 (sec) ----------------
TotEng   =      -845.7921 KinEng   =       172.6700 Temp     =       291.0915 
PotEng   =     -1018.4621 E_bond   =         0.0000 E_angle  =         0.0000 
E_dihed  =         0.0000 E_impro  =         0.0000 E_vdwl   =       222.2442 
E_coul   =      4006.7795 E_long   =     -5247.4858 Press    =       190.1769 
---------------- Step     4600 ----- CPU =    279.1357 (sec) ----------------
TotEng   =      -815.1796 KinEng   =       179.5225 Temp     =       302.6436 
PotEng   =      -994.7021 E_bond   =         0.0000 E_angle  =         0.0000 
E_dihed  =         0.0000 E_impro  =         0.0000 E_vdwl   =       196.4827 
E_coul   =      4059.4605 E_long   =     -5250.6453 Press    =      -304.4168 
---------------- Step     4700 ----- CPU =    285.1016 (sec) ----------------
TotEng   =      -820.8743 KinEng   =       173.5346 Temp     =       292.5491 
PotEng   =      -994.4089 E_bond   =         0.0000 E_angle  =         0.0000 
E_dihed  =         0.0000 E_impro  =         0.0000 E_vdwl   =       202.4345 
E_coul   =      4050.5971 E_long   =     -5247.4406 Press    =      -134.3242 
---------------- Step     4800 ----- CPU =    290.3311 (sec) ----------------
TotEng   =      -839.0773 KinEng   =       179.8110 Temp     =       303.1299 
PotEng   =     -1018.8883 E_bond   =         0.0000 E_angle  =         0.0000 
E_dihed  =         0.0000 E_impro  =         0.0000 E_vdwl   =       220.2014 
E_coul   =      4010.0938 E_long   =     -5249.1835 Press    =        49.5461 
---------------- Step     4900 ----- CPU =    297.1948 (sec) ----------------
TotEng   =      -819.5901 KinEng   =       169.5279 Temp     =       285.7944 
PotEng   =      -989.1180 E_bond   =         0.0000 E_angle  =         0.0000 
E_dihed  =         0.0000 E_impro  =         0.0000 E_vdwl   =       182.2026 
E_coul   =      4076.1699 E_long   =     -5247.4905 Press    =      -880.7653 
---------------- Step     5000 ----- CPU =    303.9449 (sec) ----------------
TotEng   =      -800.4306 KinEng   =       182.8183 Temp     =       308.1997 
PotEng   =      -983.2489 E_bond   =         0.0000 E_angle  =         0.0000 
E_dihed  =         0.0000 E_impro  =         0.0000 E_vdwl   =       217.3397 
E_coul   =      4049.4401 E_long   =     -5250.0287 Press    =       298.4745 
---------------- Step     5100 ----- CPU =    310.3916 (sec) ----------------
TotEng   =      -826.3303 KinEng   =       164.1240 Temp     =       276.6844 
PotEng   =      -990.4543 E_bond   =         0.0000 E_angle  =         0.0000 
E_dihed  =         0.0000 E_impro  =         0.0000 E_vdwl   =       197.3456 
E_coul   =      4062.8686 E_long   =     -5250.6684 Press    =      -404.7428 
---------------- Step     5200 ----- CPU =    317.3310 (sec) ----------------
TotEng   =      -813.8947 KinEng   =       184.2629 Temp     =       310.6350 
PotEng   =      -998.1576 E_bond   =         0.0000 E_angle  =         0.0000 
E_dihed  =         0.0000 E_impro  =         0.0000 E_vdwl   =       189.9367 
E_coul   =      4059.3757 E_long   =     -5247.4701 Press    =      -829.6342 
---------------- Step     5300 ----- CPU =    323.0934 (sec) ----------------
TotEng   =      -814.9825 KinEng   =       178.2897 Temp     =       300.5653 
PotEng   =      -993.2721 E_bond   =         0.0000 E_angle  =         0.0000 
E_dihed  =         0.0000 E_impro  =         0.0000 E_vdwl   =       188.6356 
E_coul   =      4066.7310 E_long   =     -5248.6387 Press    =      -844.8584 
---------------- Step     5400 ----- CPU =    329.5703 (sec) ----------------
TotEng   =      -832.1866 KinEng   =       192.3780 Temp     =       324.3158 
PotEng   =     -1024.5646 E_bond   =         0.0000 E_angle  =         0.0000 
E_dihed  =         0.0000 E_impro  =         0.0000 E_vdwl   =       216.6802 
E_coul   =      4007.5253 E_long   =     -5248.7701 Press    =      -313.7810 
---------------- Step     5500 ----- CPU =    335.9063 (sec) ----------------
TotEng   =      -818.9789 KinEng   =       172.8460 Temp     =       291.3883 
PotEng   =      -991.8249 E_bond   =         0.0000 E_angle  =         0.0000 
E_dihed  =         0.0000 E_impro  =         0.0000 E_vdwl   =       205.4454 
E_coul   =      4052.8916 E_long   =     -5250.1620 Press    =      -411.1097 
---------------- Step     5600 ----- CPU =    342.4978 (sec) ----------------
TotEng   =      -805.5362 KinEng   =       194.9915 Temp     =       328.7216 
PotEng   =     -1000.5276 E_bond   =         0.0000 E_angle  =         0.0000 
E_dihed  =         0.0000 E_impro  =         0.0000 E_vdwl   =       208.3308 
E_coul   =      4036.6144 E_long   =     -5245.4729 Press    =      -378.3172 
---------------- Step     5700 ----- CPU =    349.2413 (sec) ----------------
TotEng   =      -829.3384 KinEng   =       156.4423 Temp     =       263.7343 
PotEng   =      -985.7806 E_bond   =         0.0000 E_angle  =         0.0000 
E_dihed  =         0.0000 E_impro  =         0.0000 E_vdwl   =       213.5889 
E_coul   =      4048.2790 E_long   =     -5247.6486 Press    =        54.2297 
---------------- Step     5800 ----- CPU =    355.9548 (sec) ----------------
TotEng   =      -815.7645 KinEng   =       177.9596 Temp     =       300.0088 
PotEng   =      -993.7241 E_bond   =         0.0000 E_angle  =         0.0000 
E_dihed  =         0.0000 E_impro  =         0.0000 E_vdwl   =       217.3234 
E_coul   =      4033.8817 E_long   =     -5244.9292 Press    =       225.4384 
---------------- Step     5900 ----- CPU =    362.6535 (sec) ----------------
TotEng   =      -803.2938 KinEng   =       187.6977 Temp     =       316.4256 
PotEng   =      -990.9916 E_bond   =         0.0000 E_angle  =         0.0000 
E_dihed  =         0.0000 E_impro  =         0.0000 E_vdwl   =       182.0088 
E_coul   =      4075.4002 E_long   =     -5248.4006 Press    =      -751.8280 
---------------- Step     6000 ----- CPU =    369.3348 (sec) ----------------
TotEng   =      -829.7270 KinEng   =       172.3422 Temp     =       290.5389 
PotEng   =     -1002.0692 E_bond   =         0.0000 E_angle  =         0.0000 
E_dihed  =         0.0000 E_impro  =         0.0000 E_vdwl   =       229.8289 
E_coul   =      4016.9488 E_long   =     -5248.8468 Press    =       362.5800 
---------------- Step     6100 ----- CPU =    374.9421 (sec) ----------------
TotEng   =      -837.9330 KinEng   =       146.4378 Temp     =       246.8686 
PotEng   =      -984.3708 E_bond   =         0.0000 E_angle  =         0.0000 
E_dihed  =         0.0000 E_impro  =         0.0000 E_vdwl   =       194.6919 
E_coul   =      4068.0683 E_long   =     -5247.1310 Press    =      -579.8041 
---------------- Step     6200 ----- CPU =    380.9935 (sec) ----------------
TotEng   =      -793.1465 KinEng   =       180.3477 Temp     =       304.0348 
PotEng   =      -973.4943 E_bond   =         0.0000 E_angle  =         0.0000 
E_dihed  =         0.0000 E_impro  =         0.0000 E_vdwl   =       181.9684 
E_coul   =      4087.6290 E_long   =     -5243.0917 Press    =      -808.8725 
---------------- Step     6300 ----- CPU =    386.9689 (sec) ----------------
TotEng   =      -779.8411 KinEng   =       172.9708 Temp     =       291.5985 
PotEng   =      -952.8118 E_bond   =         0.0000 E_angle  =         0.0000 
E_dihed  =         0.0000 E_impro  =         0.0000 E_vdwl   =       209.9710 
E_coul   =      4086.5093 E_long   =     -5249.2921 Press    =       247.5868 
---------------- Step     6400 ----- CPU =    393.7598 (sec) ----------------
TotEng   =      -801.3364 KinEng   =       171.5204 Temp     =       289.1535 
PotEng   =      -972.8568 E_bond   =         0.0000 E_angle  =         0.0000 
E_dihed  =         0.0000 E_impro  =         0.0000 E_vdwl   =       181.3553 
E_coul   =      4096.0941 E_long   =     -5250.3062 Press    =      -678.2176 
---------------- Step     6500 ----- CPU =    400.4260 (sec) ----------------
TotEng   =      -770.4538 KinEng   =       186.7309 Temp     =       314.7958 
PotEng   =      -957.1847 E_bond   =         0.0000 E_angle  =         0.0000 
E_dihed  =         0.0000 E_impro  =         0.0000 E_vdwl   =       195.6973 
E_coul   =      4089.4856 E_long   =     -5242.3676 Press    =       -61.8171 
---------------- Step     6600 ----- CPU =    406.8854 (sec) ----------------
TotEng   =      -773.1411 KinEng   =       176.9886 Temp     =       298.3718 
PotEng   =      -950.1297 E_bond   =         0.0000 E_angle  =         0.0000 
E_dihed  =         0.0000 E_impro  =         0.0000 E_vdwl   =       168.6315 
E_coul   =      4130.7787 E_long   =     -5249.5399 Press    =      -970.7632 
---------------- Step     6700 ----- CPU =    413.6423 (sec) ----------------
TotEng   =      -813.8519 KinEng   =       183.1561 Temp     =       308.7693 
PotEng   =      -997.0080 E_bond   =         0.0000 E_angle  =         0.0000 
E_dihed  =         0.0000 E_impro  =         0.0000 E_vdwl   =       193.6112 
E_coul   =      4058.7600 E_long   =     -5249.3792 Press    =      -716.5247 
---------------- Step     6800 ----- CPU =    420.5250 (sec) ----------------
TotEng   =      -796.9765 KinEng   =       187.6235 Temp     =       316.3005 
PotEng   =      -984.6000 E_bond   =         0.0000 E_angle  =         0.0000 
E_dihed  =         0.0000 E_impro  =         0.0000 E_vdwl   =       185.7235 
E_coul   =      4076.8314 E_long   =     -5247.1549 Press    =      -676.4442 
---------------- Step     6900 ----- CPU =    426.1360 (sec) ----------------
TotEng   =      -817.8408 KinEng   =       169.2316 Temp     =       285.2949 
PotEng   =      -987.0724 E_bond   =         0.0000 E_angle  =         0.0000 
E_dihed  =         0.0000 E_impro  =         0.0000 E_vdwl   =       181.8337 
E_coul   =      4077.6439 E_long   =     -5246.5499 Press    =      -885.8453 
---------------- Step     7000 ----- CPU =    432.4934 (sec) ----------------
TotEng   =      -805.9648 KinEng   =       168.8375 Temp     =       284.6306 
PotEng   =      -974.8023 E_bond   =         0.0000 E_angle  =         0.0000 
E_dihed  =         0.0000 E_impro  =         0.0000 E_vdwl   =       199.5620 
E_coul   =      4073.2230 E_long   =     -5247.5873 Press    =      -262.4031 
---------------- Step     7100 ----- CPU =    439.4251 (sec) ----------------
TotEng   =      -793.1321 KinEng   =       176.4404 Temp     =       297.4478 
PotEng   =      -969.5725 E_bond   =         0.0000 E_angle  =         0.0000 
E_dihed  =         0.0000 E_impro  =         0.0000 E_vdwl   =       176.0829 
E_coul   =      4104.2473 E_long   =     -5249.9028 Press    =      -692.8245 
---------------- Step     7200 ----- CPU =    446.4216 (sec) ----------------
TotEng   =      -826.2653 KinEng   =       179.4312 Temp     =       302.4897 
PotEng   =     -1005.6966 E_bond   =         0.0000 E_angle  =         0.0000 
E_dihed  =         0.0000 E_impro  =         0.0000 E_vdwl   =       202.7193 
E_coul   =      4040.8330 E_long   =     -5249.2489 Press    =      -392.9522 
---------------- Step     7300 ----- CPU =    453.3026 (sec) ----------------
TotEng   =      -824.9138 KinEng   =       179.3249 Temp     =       302.3104 
PotEng   =     -1004.2387 E_bond   =         0.0000 E_angle  =         0.0000 
E_dihed  =         0.0000 E_impro  =         0.0000 E_vdwl   =       227.0587 
E_coul   =      4018.4200 E_long   =     -5249.7174 Press    =       241.1618 
---------------- Step     7400 ----- CPU =    459.9864 (sec) ----------------
TotEng   =      -786.6549 KinEng   =       174.7743 Temp     =       294.6390 
PotEng   =      -961.4292 E_bond   =         0.0000 E_angle  =         0.0000 
E_dihed  =         0.0000 E_impro  =         0.0000 E_vdwl   =       188.8756 
E_coul   =      4098.3736 E_long   =     -5248.6785 Press    =      -440.9832 
---------------- Step     7500 ----- CPU =    465.8095 (sec) ----------------
TotEng   =      -805.2495 KinEng   =       167.5451 Temp     =       282.4517 
PotEng   =      -972.7946 E_bond   =         0.0000 E_angle  =         0.0000 
E_dihed  =         0.0000 E_impro  =         0.0000 E_vdwl   =       203.0035 
E_coul   =      4071.2021 E_long   =     -5247.0002 Press    =       -30.9192 
---------------- Step     7600 ----- CPU =    472.3080 (sec) ----------------
TotEng   =      -831.5559 KinEng   =       169.5412 Temp     =       285.8169 
PotEng   =     -1001.0971 E_bond   =         0.0000 E_angle  =         0.0000 
E_dihed  =         0.0000 E_impro  =         0.0000 E_vdwl   =       220.7175 
E_coul   =      4030.5894 E_long   =     -5252.4039 Press    =       212.2471 
---------------- Step     7700 ----- CPU =    479.1953 (sec) ----------------
TotEng   =      -799.5683 KinEng   =       193.3057 Temp     =       325.8797 
PotEng   =      -992.8740 E_bond   =         0.0000 E_angle  =         0.0000 
E_dihed  =         0.0000 E_impro  =         0.0000 E_vdwl   =       181.8943 
E_coul   =      4070.9948 E_long   =     -5245.7631 Press    =      -685.0626 
---------------- Step     7800 ----- CPU =    485.8997 (sec) ----------------
TotEng   =      -815.2581 KinEng   =       174.9799 Temp     =       294.9855 
PotEng   =      -990.2379 E_bond   =         0.0000 E_angle  =         0.0000 
E_dihed  =         0.0000 E_impro  =         0.0000 E_vdwl   =       209.8267 
E_coul   =      4050.6545 E_long   =     -5250.7191 Press    =       -60.2215 
---------------- Step     7900 ----- CPU =    492.5832 (sec) ----------------
TotEng   =      -844.4790 KinEng   =       165.8793 Temp     =       279.6435 
PotEng   =     -1010.3583 E_bond   =         0.0000 E_angle  =         0.0000 
E_dihed  =         0.0000 E_impro  =         0.0000 E_vdwl   =       209.2767 
E_coul   =      4030.9506 E_long   =     -5250.5856 Press    =      -226.3264 
---------------- Step     8000 ----- CPU =    498.3397 (sec) ----------------
TotEng   =      -825.5677 KinEng   =       191.9685 Temp     =       323.6254 
PotEng   =     -1017.5362 E_bond   =         0.0000 E_angle  =         0.0000 
E_dihed  =         0.0000 E_impro  =         0.0000 E_vdwl   =       213.9258 
E_coul   =      4018.0476 E_long   =     -5249.5096 Press    =       -11.9398 
---------------- Step     8100 ----- CPU =    504.5887 (sec) ----------------
TotEng   =      -836.5514 KinEng   =       179.5010 Temp     =       302.6073 
PotEng   =     -1016.0524 E_bond   =         0.0000 E_angle  =         0.0000 
E_dihed  =         0.0000 E_impro  =         0.0000 E_vdwl   =       187.4296 
E_coul   =      4045.2801 E_long   =     -5248.7621 Press    =      -941.3079 
---------------- Step     8200 ----- CPU =    511.4342 (sec) ----------------
TotEng   =      -821.8193 KinEng   =       183.3959 Temp     =       309.1735 
PotEng   =     -1005.2152 E_bond   =         0.0000 E_angle  =         0.0000 
E_dihed  =         0.0000 E_impro  =         0.0000 E_vdwl   =       210.3627 
E_coul   =      4035.3451 E_long   =     -5250.9229 Press    =      -230.9480 
---------------- Step     8300 ----- CPU =    518.6135 (sec) ----------------
TotEng   =      -805.3277 KinEng   =       189.7872 Temp     =       319.9481 
PotEng   =      -995.1149 E_bond   =         0.0000 E_angle  =         0.0000 
E_dihed  =         0.0000 E_impro  =         0.0000 E_vdwl   =       185.0458 
E_coul   =      4069.3510 E_long   =     -5249.5117 Press    =      -752.0441 
---------------- Step     8400 ----- CPU =    525.4897 (sec) ----------------
TotEng   =      -812.8341 KinEng   =       181.1944 Temp     =       305.4622 
PotEng   =      -994.0286 E_bond   =         0.0000 E_angle  =         0.0000 
E_dihed  =         0.0000 E_impro  =         0.0000 E_vdwl   =       201.1923 
E_coul   =      4055.3093 E_long   =     -5250.5302 Press    =      -187.7956 
---------------- Step     8500 ----- CPU =    532.2311 (sec) ----------------
TotEng   =      -839.6027 KinEng   =       164.4827 Temp     =       277.2891 
PotEng   =     -1004.0854 E_bond   =         0.0000 E_angle  =         0.0000 
E_dihed  =         0.0000 E_impro  =         0.0000 E_vdwl   =       194.7049 
E_coul   =      4047.5980 E_long   =     -5246.3883 Press    =      -523.9203 
---------------- Step     8600 ----- CPU =    538.7484 (sec) ----------------
TotEng   =      -805.7493 KinEng   =       179.8534 Temp     =       303.2014 
PotEng   =      -985.6027 E_bond   =         0.0000 E_angle  =         0.0000 
E_dihed  =         0.0000 E_impro  =         0.0000 E_vdwl   =       185.6975 
E_coul   =      4079.4292 E_long   =     -5250.7294 Press    =      -666.1182 
---------------- Step     8700 ----- CPU =    545.5737 (sec) ----------------
TotEng   =      -808.4027 KinEng   =       172.3810 Temp     =       290.6043 
PotEng   =      -980.7837 E_bond   =         0.0000 E_angle  =         0.0000 
E_dihed  =         0.0000 E_impro  =         0.0000 E_vdwl   =       214.5062 
E_coul   =      4052.8413 E_long   =     -5248.1313 Press    =       243.4728 
---------------- Step     8800 ----- CPU =    552.3863 (sec) ----------------
TotEng   =      -816.6105 KinEng   =       177.1769 Temp     =       298.6893 
PotEng   =      -993.7873 E_bond   =         0.0000 E_angle  =         0.0000 
E_dihed  =         0.0000 E_impro  =         0.0000 E_vdwl   =       219.3804 
E_coul   =      4036.3649 E_long   =     -5249.5326 Press    =       192.8993 
---------------- Step     8900 ----- CPU =    559.1118 (sec) ----------------
TotEng   =      -845.9804 KinEng   =       166.1534 Temp     =       280.1056 
PotEng   =     -1012.1338 E_bond   =         0.0000 E_angle  =         0.0000 
E_dihed  =         0.0000 E_impro  =         0.0000 E_vdwl   =       186.4093 
E_coul   =      4049.1036 E_long   =     -5247.6467 Press    =      -955.1264 
---------------- Step     9000 ----- CPU =    565.9153 (sec) ----------------
TotEng   =      -824.7945 KinEng   =       187.7585 Temp     =       316.5281 
PotEng   =     -1012.5530 E_bond   =         0.0000 E_angle  =         0.0000 
E_dihed  =         0.0000 E_impro  =         0.0000 E_vdwl   =       227.5230 
E_coul   =      4009.0171 E_long   =     -5249.0931 Press    =       244.3146 
---------------- Step     9100 ----- CPU =    572.3868 (sec) ----------------
TotEng   =      -816.3475 KinEng   =       175.7128 Temp     =       296.2211 
PotEng   =      -992.0603 E_bond   =         0.0000 E_angle  =         0.0000 
E_dihed  =         0.0000 E_impro  =         0.0000 E_vdwl   =       201.0926 
E_coul   =      4056.8043 E_long   =     -5249.9572 Press    =      -246.8333 
---------------- Step     9200 ----- CPU =    578.6083 (sec) ----------------
TotEng   =      -789.7555 KinEng   =       188.5714 Temp     =       317.8985 
PotEng   =      -978.3269 E_bond   =         0.0000 E_angle  =         0.0000 
E_dihed  =         0.0000 E_impro  =         0.0000 E_vdwl   =       196.8244 
E_coul   =      4074.7472 E_long   =     -5249.8985 Press    =      -297.8369 
---------------- Step     9300 ----- CPU =    585.3594 (sec) ----------------
TotEng   =      -764.2500 KinEng   =       186.2939 Temp     =       314.0590 
PotEng   =      -950.5439 E_bond   =         0.0000 E_angle  =         0.0000 
E_dihed  =         0.0000 E_impro  =         0.0000 E_vdwl   =       182.8265 
E_coul   =      4117.4282 E_long   =     -5250.7987 Press    =      -258.7887 
---------------- Step     9400 ----- CPU =    592.2146 (sec) ----------------
TotEng   =      -801.4365 KinEng   =       165.1931 Temp     =       278.4867 
PotEng   =      -966.6295 E_bond   =         0.0000 E_angle  =         0.0000 
E_dihed  =         0.0000 E_impro  =         0.0000 E_vdwl   =       173.9480 
E_coul   =      4109.0169 E_long   =     -5249.5944 Press    =      -928.5716 
---------------- Step     9500 ----- CPU =    598.2513 (sec) ----------------
TotEng   =      -793.2180 KinEng   =       189.8764 Temp     =       320.0984 
PotEng   =      -983.0943 E_bond   =         0.0000 E_angle  =         0.0000 
E_dihed  =         0.0000 E_impro  =         0.0000 E_vdwl   =       210.7419 
E_coul   =      4053.8319 E_long   =     -5247.6682 Press    =      -105.2849 
---------------- Step     9600 ----- CPU =    604.4276 (sec) ----------------
TotEng   =      -811.7570 KinEng   =       167.1467 Temp     =       281.7801 
PotEng   =      -978.9036 E_bond   =         0.0000 E_angle  =         0.0000 
E_dihed  =         0.0000 E_impro  =         0.0000 E_vdwl   =       196.0008 
E_coul   =      4073.1239 E_long   =     -5248.0283 Press    =      -442.2162 
---------------- Step     9700 ----- CPU =    611.0811 (sec) ----------------
TotEng   =      -811.9597 KinEng   =       179.5739 Temp     =       302.7302 
PotEng   =      -991.5336 E_bond   =         0.0000 E_angle  =         0.0000 
E_dihed  =         0.0000 E_impro  =         0.0000 E_vdwl   =       178.5673 
E_coul   =      4079.8502 E_long   =     -5249.9511 Press    =      -854.2364 
---------------- Step     9800 ----- CPU =    617.8976 (sec) ----------------
TotEng   =      -789.9498 KinEng   =       178.0627 Temp     =       300.1826 
PotEng   =      -968.0125 E_bond   =         0.0000 E_angle  =         0.0000 
E_dihed  =         0.0000 E_impro  =         0.0000 E_vdwl   =       173.9167 
E_coul   =      4109.3681 E_long   =     -5251.2973 Press    =      -832.9229 
---------------- Step     9900 ----- CPU =    624.3833 (sec) ----------------
TotEng   =      -818.2852 KinEng   =       178.8145 Temp     =       301.4501 
PotEng   =      -997.0997 E_bond   =         0.0000 E_angle  =         0.0000 
E_dihed  =         0.0000 E_impro  =         0.0000 E_vdwl   =       229.0724 
E_coul   =      4024.6944 E_long   =     -5250.8665 Press    =       436.0640 
---------------- Step    10000 ----- CPU =    631.4025 (sec) ----------------
TotEng   =      -814.1206 KinEng   =       164.3378 Temp     =       277.0448 
PotEng   =      -978.4583 E_bond   =         0.0000 E_angle  =         0.0000 
E_dihed  =         0.0000 E_impro  =         0.0000 E_vdwl   =       199.0100 
E_coul   =      4072.4158 E_long   =     -5249.8841 Press    =      -245.4060 
---------------- Step    10100 ----- CPU =    637.3451 (sec) ----------------
TotEng   =      -796.2236 KinEng   =       182.9582 Temp     =       308.4355 
PotEng   =      -979.1818 E_bond   =         0.0000 E_angle  =         0.0000 
E_dihed  =         0.0000 E_impro  =         0.0000 E_vdwl   =       204.8450 
E_coul   =      4065.2661 E_long   =     -5249.2929 Press    =       -47.3524 
---------------- Step    10200 ----- CPU =    644.0995 (sec) ----------------
TotEng   =      -824.2933 KinEng   =       168.5131 Temp     =       284.0837 
PotEng   =      -992.8064 E_bond   =         0.0000 E_angle  =         0.0000 
E_dihed  =         0.0000 E_impro  =         0.0000 E_vdwl   =       179.6427 
E_coul   =      4075.6224 E_long   =     -5248.0716 Press    =      -956.2413 
---------------- Step    10300 ----- CPU =    650.8191 (sec) ----------------
TotEng   =      -826.3466 KinEng   =       174.1999 Temp     =       293.6707 
PotEng   =     -1000.5465 E_bond   =         0.0000 E_angle  =         0.0000 
E_dihed  =         0.0000 E_impro  =         0.0000 E_vdwl   =       206.1542 
E_coul   =      4044.0908 E_long   =     -5250.7915 Press    =      -278.5294 
---------------- Step    10400 ----- CPU =    657.7968 (sec) ----------------
TotEng   =      -791.2973 KinEng   =       190.0873 Temp     =       320.4540 
PotEng   =      -981.3846 E_bond   =         0.0000 E_angle  =         0.0000 
E_dihed  =         0.0000 E_impro  =         0.0000 E_vdwl   =       177.1723 
E_coul   =      4092.5330 E_long   =     -5251.0899 Press    =      -832.0109 
---------------- Step    10500 ----- CPU =    664.6517 (sec) ----------------
TotEng   =      -800.8543 KinEng   =       175.4771 Temp     =       295.8238 
PotEng   =      -976.3314 E_bond   =         0.0000 E_angle  =         0.0000 
E_dihed  =         0.0000 E_impro  =         0.0000 E_vdwl   =       168.2808 
E_coul   =      4105.6789 E_long   =     -5250.2912 Press    =     -1098.9745 
---------------- Step    10600 ----- CPU =    670.7595 (sec) ----------------
TotEng   =      -826.1036 KinEng   =       168.2908 Temp     =       283.7089 
PotEng   =      -994.3943 E_bond   =         0.0000 E_angle  =         0.0000 
E_dihed  =         0.0000 E_impro  =         0.0000 E_vdwl   =       194.3272 
E_coul   =      4061.7723 E_long   =     -5250.4938 Press    =      -642.4581 
---------------- Step    10700 ----- CPU =    677.3337 (sec) ----------------
TotEng   =      -797.4524 KinEng   =       181.0081 Temp     =       305.1480 
PotEng   =      -978.4604 E_bond   =         0.0000 E_angle  =         0.0000 
E_dihed  =         0.0000 E_impro  =         0.0000 E_vdwl   =       233.4147 
E_coul   =      4036.2589 E_long   =     -5248.1341 Press    =       836.8119 
---------------- Step    10800 ----- CPU =    683.9518 (sec) ----------------
TotEng   =      -795.8101 KinEng   =       174.2664 Temp     =       293.7827 
PotEng   =      -970.0765 E_bond   =         0.0000 E_angle  =         0.0000 
E_dihed  =         0.0000 E_impro  =         0.0000 E_vdwl   =       187.5382 
E_coul   =      4090.2975 E_long   =     -5247.9123 Press    =      -672.3047 
---------------- Step    10900 ----- CPU =    689.6074 (sec) ----------------
TotEng   =      -807.5987 KinEng   =       175.3550 Temp     =       295.6180 
PotEng   =      -982.9538 E_bond   =         0.0000 E_angle  =         0.0000 
E_dihed  =         0.0000 E_impro  =         0.0000 E_vdwl   =       201.0892 
E_coul   =      4060.9904 E_long   =     -5245.0333 Press    =      -311.4754 
---------------- Step    11000 ----- CPU =    695.8114 (sec) ----------------
TotEng   =      -770.4599 KinEng   =       182.6528 Temp     =       307.9208 
PotEng   =      -953.1127 E_bond   =         0.0000 E_angle  =         0.0000 
E_dihed  =         0.0000 E_impro  =         0.0000 E_vdwl   =       187.9012 
E_coul   =      4108.6618 E_long   =     -5249.6757 Press    =      -430.1021 
---------------- Step    11100 ----- CPU =    700.0679 (sec) ----------------
TotEng   =      -799.9087 KinEng   =       165.6525 Temp     =       279.2612 
PotEng   =      -965.5612 E_bond   =         0.0000 E_angle  =         0.0000 
E_dihed  =         0.0000 E_impro  =         0.0000 E_vdwl   =       192.4049 
E_coul   =      4091.1533 E_long   =     -5249.1194 Press    =      -198.9178 
---------------- Step    11200 ----- CPU =    705.1046 (sec) ----------------
TotEng   =      -832.3946 KinEng   =       172.2177 Temp     =       290.3290 
PotEng   =     -1004.6122 E_bond   =         0.0000 E_angle  =         0.0000 
E_dihed  =         0.0000 E_impro  =         0.0000 E_vdwl   =       183.7380 
E_coul   =      4062.6285 E_long   =     -5250.9787 Press    =      -595.9955 
---------------- Step    11300 ----- CPU =    710.6382 (sec) ----------------
TotEng   =      -824.8096 KinEng   =       172.4350 Temp     =       290.6952 
PotEng   =      -997.2446 E_bond   =         0.0000 E_angle  =         0.0000 
E_dihed  =         0.0000 E_impro  =         0.0000 E_vdwl   =       202.8328 
E_coul   =      4049.3118 E_long   =     -5249.3891 Press    =        18.2752 
---------------- Step    11400 ----- CPU =    717.4686 (sec) ----------------
TotEng   =      -782.4019 KinEng   =       175.5623 Temp     =       295.9675 
PotEng   =      -957.9643 E_bond   =         0.0000 E_angle  =         0.0000 
E_dihed  =         0.0000 E_impro  =         0.0000 E_vdwl   =       164.8569 
E_coul   =      4128.3547 E_long   =     -5251.1759 Press    =      -985.5421 
---------------- Step    11500 ----- CPU =    724.0451 (sec) ----------------
TotEng   =      -782.1105 KinEng   =       189.3469 Temp     =       319.2058 
PotEng   =      -971.4573 E_bond   =         0.0000 E_angle  =         0.0000 
E_dihed  =         0.0000 E_impro  =         0.0000 E_vdwl   =       188.7372 
E_coul   =      4089.7784 E_long   =     -5249.9729 Press    =      -458.1370 
---------------- Step    11600 ----- CPU =    730.8824 (sec) ----------------
TotEng   =      -810.6507 KinEng   =       172.2964 Temp     =       290.4616 
PotEng   =      -982.9471 E_bond   =         0.0000 E_angle  =         0.0000 
E_dihed  =         0.0000 E_impro  =         0.0000 E_vdwl   =       167.5837 
E_coul   =      4097.6702 E_long   =     -5248.2010 Press    =     -1195.2043 
---------------- Step    11700 ----- CPU =    737.3913 (sec) ----------------
TotEng   =      -823.8989 KinEng   =       182.7359 Temp     =       308.0609 
PotEng   =     -1006.6348 E_bond   =         0.0000 E_angle  =         0.0000 
E_dihed  =         0.0000 E_impro  =         0.0000 E_vdwl   =       175.4012 
E_coul   =      4069.5857 E_long   =     -5251.6216 Press    =     -1030.6195 
---------------- Step    11800 ----- CPU =    743.8516 (sec) ----------------
TotEng   =      -810.6239 KinEng   =       175.5944 Temp     =       296.0216 
PotEng   =      -986.2184 E_bond   =         0.0000 E_angle  =         0.0000 
E_dihed  =         0.0000 E_impro  =         0.0000 E_vdwl   =       186.5471 
E_coul   =      4076.5491 E_long   =     -5249.3146 Press    =      -334.5603 
---------------- Step    11900 ----- CPU =    750.6261 (sec) ----------------
TotEng   =      -815.7870 KinEng   =       178.7155 Temp     =       301.2831 
PotEng   =      -994.5025 E_bond   =         0.0000 E_angle  =         0.0000 
E_dihed  =         0.0000 E_impro  =         0.0000 E_vdwl   =       180.3845 
E_coul   =      4074.2540 E_long   =     -5249.1410 Press    =      -760.7352 
---------------- Step    12000 ----- CPU =    757.4446 (sec) ----------------
TotEng   =      -825.9151 KinEng   =       168.6073 Temp     =       284.2425 
PotEng   =      -994.5224 E_bond   =         0.0000 E_angle  =         0.0000 
E_dihed  =         0.0000 E_impro  =         0.0000 E_vdwl   =       194.7433 
E_coul   =      4062.7867 E_long   =     -5252.0525 Press    =      -392.4074 
---------------- Step    12100 ----- CPU =    764.1052 (sec) ----------------
TotEng   =      -798.0128 KinEng   =       184.6164 Temp     =       311.2311 
PotEng   =      -982.6293 E_bond   =         0.0000 E_angle  =         0.0000 
E_dihed  =         0.0000 E_impro  =         0.0000 E_vdwl   =       179.2073 
E_coul   =      4088.2736 E_long   =     -5250.1101 Press    =      -597.8521 
---------------- Step    12200 ----- CPU =    770.9025 (sec) ----------------
TotEng   =      -825.1314 KinEng   =       180.9927 Temp     =       305.1221 
PotEng   =     -1006.1242 E_bond   =         0.0000 E_angle  =         0.0000 
E_dihed  =         0.0000 E_impro  =         0.0000 E_vdwl   =       194.1441 
E_coul   =      4047.5427 E_long   =     -5247.8110 Press    =      -664.0504 
---------------- Step    12300 ----- CPU =    777.5474 (sec) ----------------
TotEng   =      -822.4477 KinEng   =       181.2923 Temp     =       305.6271 
PotEng   =     -1003.7399 E_bond   =         0.0000 E_angle  =         0.0000 
E_dihed  =         0.0000 E_impro  =         0.0000 E_vdwl   =       193.5893 
E_coul   =      4051.7814 E_long   =     -5249.1106 Press    =      -641.9452 
---------------- Step    12400 ----- CPU =    784.2208 (sec) ----------------
TotEng   =      -821.5395 KinEng   =       177.2343 Temp     =       298.7862 
PotEng   =      -998.7738 E_bond   =         0.0000 E_angle  =         0.0000 
E_dihed  =         0.0000 E_impro  =         0.0000 E_vdwl   =       173.4702 
E_coul   =      4074.8595 E_long   =     -5247.1036 Press    =     -1296.7671 
---------------- Step    12500 ----- CPU =    791.0020 (sec) ----------------
TotEng   =      -820.4410 KinEng   =       187.1905 Temp     =       315.5705 
PotEng   =     -1007.6315 E_bond   =         0.0000 E_angle  =         0.0000 
E_dihed  =         0.0000 E_impro  =         0.0000 E_vdwl   =       247.6177 
E_coul   =      3993.4061 E_long   =     -5248.6554 Press    =       877.3158 
---------------- Step    12600 ----- CPU =    797.5570 (sec) ----------------
TotEng   =      -842.9542 KinEng   =       173.7360 Temp     =       292.8885 
PotEng   =     -1016.6902 E_bond   =         0.0000 E_angle  =         0.0000 
E_dihed  =         0.0000 E_impro  =         0.0000 E_vdwl   =       181.1015 
E_coul   =      4051.0994 E_long   =     -5248.8911 Press    =     -1184.3418 
---------------- Step    12700 ----- CPU =    804.3833 (sec) ----------------
TotEng   =      -804.5693 KinEng   =       184.5431 Temp     =       311.1075 
PotEng   =      -989.1124 E_bond   =         0.0000 E_angle  =         0.0000 
E_dihed  =         0.0000 E_impro  =         0.0000 E_vdwl   =       192.5467 
E_coul   =      4066.3688 E_long   =     -5248.0279 Press    =      -599.2954 
---------------- Step    12800 ----- CPU =    811.1319 (sec) ----------------
TotEng   =      -805.1221 KinEng   =       186.3428 Temp     =       314.1415 
PotEng   =      -991.4649 E_bond   =         0.0000 E_angle  =         0.0000 
E_dihed  =         0.0000 E_impro  =         0.0000 E_vdwl   =       217.3525 
E_coul   =      4041.2189 E_long   =     -5250.0363 Press    =       110.4927 
---------------- Step    12900 ----- CPU =    818.0262 (sec) ----------------
TotEng   =      -836.2297 KinEng   =       164.0605 Temp     =       276.5773 
PotEng   =     -1000.2902 E_bond   =         0.0000 E_angle  =         0.0000 
E_dihed  =         0.0000 E_impro  =         0.0000 E_vdwl   =       191.7734 
E_coul   =      4059.1124 E_long   =     -5251.1760 Press    =      -844.5926 
---------------- Step    13000 ----- CPU =    825.0697 (sec) ----------------
TotEng   =      -792.9453 KinEng   =       178.9652 Temp     =       301.7041 
PotEng   =      -971.9105 E_bond   =         0.0000 E_angle  =         0.0000 
E_dihed  =         0.0000 E_impro  =         0.0000 E_vdwl   =       179.6244 
E_coul   =      4098.8595 E_long   =     -5250.3944 Press    =      -894.8766 
---------------- Step    13100 ----- CPU =    831.9669 (sec) ----------------
TotEng   =      -798.4890 KinEng   =       185.2140 Temp     =       312.2385 
PotEng   =      -983.7031 E_bond   =         0.0000 E_angle  =         0.0000 
E_dihed  =         0.0000 E_impro  =         0.0000 E_vdwl   =       178.7087 
E_coul   =      4085.5345 E_long   =     -5247.9462 Press    =      -949.6793 
---------------- Step    13200 ----- CPU =    838.8856 (sec) ----------------
TotEng   =      -828.7083 KinEng   =       164.4374 Temp     =       277.2128 
PotEng   =      -993.1457 E_bond   =         0.0000 E_angle  =         0.0000 
E_dihed  =         0.0000 E_impro  =         0.0000 E_vdwl   =       179.3087 
E_coul   =      4079.0311 E_long   =     -5251.4855 Press    =     -1184.8050 
---------------- Step    13300 ----- CPU =    845.5994 (sec) ----------------
TotEng   =      -814.3255 KinEng   =       167.9889 Temp     =       283.1999 
PotEng   =      -982.3144 E_bond   =         0.0000 E_angle  =         0.0000 
E_dihed  =         0.0000 E_impro  =         0.0000 E_vdwl   =       200.8745 
E_coul   =      4064.9089 E_long   =     -5248.0979 Press    =      -247.9064 
---------------- Step    13400 ----- CPU =    852.2225 (sec) ----------------
TotEng   =      -832.2352 KinEng   =       160.8976 Temp     =       271.2453 
PotEng   =      -993.1329 E_bond   =         0.0000 E_angle  =         0.0000 
E_dihed  =         0.0000 E_impro  =         0.0000 E_vdwl   =       207.4886 
E_coul   =      4048.2546 E_long   =     -5248.8760 Press    =      -223.3125 
---------------- Step    13500 ----- CPU =    858.6882 (sec) ----------------
TotEng   =      -840.9930 KinEng   =       175.8536 Temp     =       296.4586 
PotEng   =     -1016.8466 E_bond   =         0.0000 E_angle  =         0.0000 
E_dihed  =         0.0000 E_impro  =         0.0000 E_vdwl   =       185.5473 
E_coul   =      4047.6976 E_long   =     -5250.0916 Press    =     -1164.9639 
---------------- Step    13600 ----- CPU =    865.4627 (sec) ----------------
TotEng   =      -806.6799 KinEng   =       191.2109 Temp     =       322.3481 
PotEng   =      -997.8908 E_bond   =         0.0000 E_angle  =         0.0000 
E_dihed  =         0.0000 E_impro  =         0.0000 E_vdwl   =       228.3905 
E_coul   =      4026.3814 E_long   =     -5252.6627 Press    =       406.9662 
---------------- Step    13700 ----- CPU =    872.0379 (sec) ----------------
TotEng   =      -815.4150 KinEng   =       176.1137 Temp     =       296.8970 
PotEng   =      -991.5287 E_bond   =         0.0000 E_angle  =         0.0000 
E_dihed  =         0.0000 E_impro  =         0.0000 E_vdwl   =       188.6072 
E_coul   =      4070.7633 E_long   =     -5250.8992 Press    =      -633.8454 
---------------- Step    13800 ----- CPU =    878.2491 (sec) ----------------
TotEng   =      -784.1808 KinEng   =       173.6708 Temp     =       292.7787 
PotEng   =      -957.8517 E_bond   =         0.0000 E_angle  =         0.0000 
E_dihed  =         0.0000 E_impro  =         0.0000 E_vdwl   =       179.5426 
E_coul   =      4112.3782 E_long   =     -5249.7725 Press    =      -550.2509 
---------------- Step    13900 ----- CPU =    885.0738 (sec) ----------------
TotEng   =      -780.5615 KinEng   =       180.3868 Temp     =       304.1006 
PotEng   =      -960.9482 E_bond   =         0.0000 E_angle  =         0.0000 
E_dihed  =         0.0000 E_impro  =         0.0000 E_vdwl   =       186.4598 
E_coul   =      4097.6877 E_long   =     -5245.0958 Press    =      -365.9408 
---------------- Step    14000 ----- CPU =    891.8936 (sec) ----------------
TotEng   =      -800.3204 KinEng   =       168.8984 Temp     =       284.7332 
PotEng   =      -969.2188 E_bond   =         0.0000 E_angle  =         0.0000 
E_dihed  =         0.0000 E_impro  =         0.0000 E_vdwl   =       200.5744 
E_coul   =      4079.3776 E_long   =     -5249.1708 Press    =         5.8896 
---------------- Step    14100 ----- CPU =    898.2129 (sec) ----------------
TotEng   =      -774.9118 KinEng   =       211.2976 Temp     =       356.2109 
PotEng   =      -986.2094 E_bond   =         0.0000 E_angle  =         0.0000 
E_dihed  =         0.0000 E_impro  =         0.0000 E_vdwl   =       189.4892 
E_coul   =      4074.1424 E_long   =     -5249.8410 Press    =      -597.4278 
---------------- Step    14200 ----- CPU =    904.4472 (sec) ----------------
TotEng   =      -775.3822 KinEng   =       181.1541 Temp     =       305.3942 
PotEng   =      -956.5363 E_bond   =         0.0000 E_angle  =         0.0000 
E_dihed  =         0.0000 E_impro  =         0.0000 E_vdwl   =       182.9359 
E_coul   =      4108.4803 E_long   =     -5247.9525 Press    =      -723.9179 
---------------- Step    14300 ----- CPU =    911.2805 (sec) ----------------
TotEng   =      -800.1692 KinEng   =       172.8963 Temp     =       291.4729 
PotEng   =      -973.0654 E_bond   =         0.0000 E_angle  =         0.0000 
E_dihed  =         0.0000 E_impro  =         0.0000 E_vdwl   =       184.5379 
E_coul   =      4090.5204 E_long   =     -5248.1238 Press    =      -888.7409 
---------------- Step    14400 ----- CPU =    917.6100 (sec) ----------------
TotEng   =      -782.6148 KinEng   =       187.1028 Temp     =       315.4227 
PotEng   =      -969.7176 E_bond   =         0.0000 E_angle  =         0.0000 
E_dihed  =         0.0000 E_impro  =         0.0000 E_vdwl   =       203.1434 
E_coul   =      4076.8666 E_long   =     -5249.7276 Press    =      -228.9013 
---------------- Step    14500 ----- CPU =    923.3696 (sec) ----------------
TotEng   =      -809.3204 KinEng   =       171.2768 Temp     =       288.7429 
PotEng   =      -980.5973 E_bond   =         0.0000 E_angle  =         0.0000 
E_dihed  =         0.0000 E_impro  =         0.0000 E_vdwl   =       159.1326 
E_coul   =      4111.4410 E_long   =     -5251.1708 Press    =     -1567.4489 
---------------- Step    14600 ----- CPU =    929.9245 (sec) ----------------
TotEng   =      -805.6452 KinEng   =       172.6070 Temp     =       290.9853 
PotEng   =      -978.2522 E_bond   =         0.0000 E_angle  =         0.0000 
E_dihed  =         0.0000 E_impro  =         0.0000 E_vdwl   =       185.3410 
E_coul   =      4085.0345 E_long   =     -5248.6277 Press    =      -588.9938 
---------------- Step    14700 ----- CPU =    936.8447 (sec) ----------------
TotEng   =      -822.3051 KinEng   =       174.8951 Temp     =       294.8426 
PotEng   =      -997.2002 E_bond   =         0.0000 E_angle  =         0.0000 
E_dihed  =         0.0000 E_impro  =         0.0000 E_vdwl   =       195.9691 
E_coul   =      4055.5072 E_long   =     -5248.6765 Press    =      -632.1316 
---------------- Step    14800 ----- CPU =    943.1516 (sec) ----------------
TotEng   =      -837.8801 KinEng   =       182.2684 Temp     =       307.2726 
PotEng   =     -1020.1485 E_bond   =         0.0000 E_angle  =         0.0000 
E_dihed  =         0.0000 E_impro  =         0.0000 E_vdwl   =       221.9830 
E_coul   =      4007.0743 E_long   =     -5249.2058 Press    =       -74.8578 
---------------- Step    14900 ----- CPU =    949.7640 (sec) ----------------
TotEng   =      -818.8552 KinEng   =       172.5634 Temp     =       290.9117 
PotEng   =      -991.4186 E_bond   =         0.0000 E_angle  =         0.0000 
E_dihed  =         0.0000 E_impro  =         0.0000 E_vdwl   =       175.0261 
E_coul   =      4086.0733 E_long   =     -5252.5180 Press    =     -1166.4171 
---------------- Step    15000 ----- CPU =    956.4375 (sec) ----------------
TotEng   =      -803.0801 KinEng   =       187.4235 Temp     =       315.9633 
PotEng   =      -990.5036 E_bond   =         0.0000 E_angle  =         0.0000 
E_dihed  =         0.0000 E_impro  =         0.0000 E_vdwl   =       178.4697 
E_coul   =      4081.9508 E_long   =     -5250.9241 Press    =      -961.3862 
---------------- Step    15100 ----- CPU =    963.3403 (sec) ----------------
TotEng   =      -795.0230 KinEng   =       182.2287 Temp     =       307.2057 
PotEng   =      -977.2516 E_bond   =         0.0000 E_angle  =         0.0000 
E_dihed  =         0.0000 E_impro  =         0.0000 E_vdwl   =       193.9439 
E_coul   =      4078.8830 E_long   =     -5250.0786 Press    =      -402.7370 
---------------- Step    15200 ----- CPU =    969.9062 (sec) ----------------
TotEng   =      -789.4741 KinEng   =       181.9832 Temp     =       306.7919 
PotEng   =      -971.4573 E_bond   =         0.0000 E_angle  =         0.0000 
E_dihed  =         0.0000 E_impro  =         0.0000 E_vdwl   =       209.4268 
E_coul   =      4066.5649 E_long   =     -5247.4489 Press    =       304.0242 
---------------- Step    15300 ----- CPU =    976.7898 (sec) ----------------
TotEng   =      -820.4995 KinEng   =       177.9516 Temp     =       299.9954 
PotEng   =      -998.4511 E_bond   =         0.0000 E_angle  =         0.0000 
E_dihed  =         0.0000 E_impro  =         0.0000 E_vdwl   =       163.9447 
E_coul   =      4086.4545 E_long   =     -5248.8503 Press    =     -1424.9013 
---------------- Step    15400 ----- CPU =    983.5560 (sec) ----------------
TotEng   =      -813.1709 KinEng   =       179.2060 Temp     =       302.1101 
PotEng   =      -992.3769 E_bond   =         0.0000 E_angle  =         0.0000 
E_dihed  =         0.0000 E_impro  =         0.0000 E_vdwl   =       168.8118 
E_coul   =      4086.4021 E_long   =     -5247.5909 Press    =     -1099.5745 
---------------- Step    15500 ----- CPU =    989.4476 (sec) ----------------
TotEng   =      -797.2672 KinEng   =       207.2506 Temp     =       349.3883 
PotEng   =     -1004.5178 E_bond   =         0.0000 E_angle  =         0.0000 
E_dihed  =         0.0000 E_impro  =         0.0000 E_vdwl   =       198.7586 
E_coul   =      4047.6517 E_long   =     -5250.9280 Press    =      -459.5094 
---------------- Step    15600 ----- CPU =    996.0725 (sec) ----------------
TotEng   =      -830.1735 KinEng   =       180.1904 Temp     =       303.7695 
PotEng   =     -1010.3638 E_bond   =         0.0000 E_angle  =         0.0000 
E_dihed  =         0.0000 E_impro  =         0.0000 E_vdwl   =       173.9203 
E_coul   =      4066.6511 E_long   =     -5250.9352 Press    =     -1226.2270 
---------------- Step    15700 ----- CPU =   1002.9583 (sec) ----------------
TotEng   =      -834.4161 KinEng   =       173.8306 Temp     =       293.0481 
PotEng   =     -1008.2467 E_bond   =         0.0000 E_angle  =         0.0000 
E_dihed  =         0.0000 E_impro  =         0.0000 E_vdwl   =       192.3875 
E_coul   =      4050.8937 E_long   =     -5251.5279 Press    =      -712.4289 
---------------- Step    15800 ----- CPU =   1009.4245 (sec) ----------------
TotEng   =      -800.9721 KinEng   =       190.2487 Temp     =       320.7262 
PotEng   =      -991.2208 E_bond   =         0.0000 E_angle  =         0.0000 
E_dihed  =         0.0000 E_impro  =         0.0000 E_vdwl   =       202.9586 
E_coul   =      4054.6115 E_long   =     -5248.7909 Press    =      -341.6380 
---------------- Step    15900 ----- CPU =   1016.1026 (sec) ----------------
TotEng   =      -821.6955 KinEng   =       194.4134 Temp     =       327.7470 
PotEng   =     -1016.1089 E_bond   =         0.0000 E_angle  =         0.0000 
E_dihed  =         0.0000 E_impro  =         0.0000 E_vdwl   =       164.2764 
E_coul   =      4069.1338 E_long   =     -5249.5191 Press    =     -1489.4974 
---------------- Step    16000 ----- CPU =   1023.0400 (sec) ----------------
TotEng   =      -843.2273 KinEng   =       182.2857 Temp     =       307.3018 
PotEng   =     -1025.5129 E_bond   =         0.0000 E_angle  =         0.0000 
E_dihed  =         0.0000 E_impro  =         0.0000 E_vdwl   =       181.4082 
E_coul   =      4043.6994 E_long   =     -5250.6206 Press    =     -1154.8102 
---------------- Step    16100 ----- CPU =   1029.5140 (sec) ----------------
TotEng   =      -848.5397 KinEng   =       173.8159 Temp     =       293.0233 
PotEng   =     -1022.3557 E_bond   =         0.0000 E_angle  =         0.0000 
E_dihed  =         0.0000 E_impro  =         0.0000 E_vdwl   =       210.9110 
E_coul   =      4013.9502 E_long   =     -5247.2168 Press    =      -354.5099 
---------------- Step    16200 ----- CPU =   1036.2100 (sec) ----------------
TotEng   =      -853.6101 KinEng   =       178.9588 Temp     =       301.6934 
PotEng   =     -1032.5689 E_bond   =         0.0000 E_angle  =         0.0000 
E_dihed  =         0.0000 E_impro  =         0.0000 E_vdwl   =       202.6068 
E_coul   =      4015.8055 E_long   =     -5250.9812 Press    =      -705.4739 
---------------- Step    16300 ----- CPU =   1042.6476 (sec) ----------------
TotEng   =      -830.3716 KinEng   =       176.5129 Temp     =       297.5699 
PotEng   =     -1006.8845 E_bond   =         0.0000 E_angle  =         0.0000 
E_dihed  =         0.0000 E_impro  =         0.0000 E_vdwl   =       187.8522 
E_coul   =      4051.7058 E_long   =     -5246.4425 Press    =      -887.5482 
---------------- Step    16400 ----- CPU =   1049.5180 (sec) ----------------
TotEng   =      -827.1598 KinEng   =       185.1265 Temp     =       312.0910 
PotEng   =     -1012.2863 E_bond   =         0.0000 E_angle  =         0.0000 
E_dihed  =         0.0000 E_impro  =         0.0000 E_vdwl   =       217.9032 
E_coul   =      4018.2070 E_long   =     -5248.3965 Press    =      -116.3930 
---------------- Step    16500 ----- CPU =   1056.0627 (sec) ----------------
TotEng   =      -806.0761 KinEng   =       176.5060 Temp     =       297.5584 
PotEng   =      -982.5821 E_bond   =         0.0000 E_angle  =         0.0000 
E_dihed  =         0.0000 E_impro  =         0.0000 E_vdwl   =       214.7826 
E_coul   =      4051.9293 E_long   =     -5249.2940 Press    =        71.9666 
---------------- Step    16600 ----- CPU =   1062.0379 (sec) ----------------
TotEng   =      -821.4657 KinEng   =       187.5210 Temp     =       316.1276 
PotEng   =     -1008.9867 E_bond   =         0.0000 E_angle  =         0.0000 
E_dihed  =         0.0000 E_impro  =         0.0000 E_vdwl   =       191.3887 
E_coul   =      4047.4911 E_long   =     -5247.8664 Press    =      -747.0275 
---------------- Step    16700 ----- CPU =   1068.6721 (sec) ----------------
TotEng   =      -831.2324 KinEng   =       172.9554 Temp     =       291.5726 
PotEng   =     -1004.1878 E_bond   =         0.0000 E_angle  =         0.0000 
E_dihed  =         0.0000 E_impro  =         0.0000 E_vdwl   =       198.9027 
E_coul   =      4045.9247 E_long   =     -5249.0153 Press    =      -450.2753 
---------------- Step    16800 ----- CPU =   1075.5618 (sec) ----------------
TotEng   =      -803.9387 KinEng   =       194.9943 Temp     =       328.7264 
PotEng   =      -998.9330 E_bond   =         0.0000 E_angle  =         0.0000 
E_dihed  =         0.0000 E_impro  =         0.0000 E_vdwl   =       210.9656 
E_coul   =      4037.3446 E_long   =     -5247.2432 Press    =        81.7310 
---------------- Step    16900 ----- CPU =   1082.2106 (sec) ----------------
TotEng   =      -825.7135 KinEng   =       172.4130 Temp     =       290.6583 
PotEng   =      -998.1266 E_bond   =         0.0000 E_angle  =         0.0000 
E_dihed  =         0.0000 E_impro  =         0.0000 E_vdwl   =       213.4595 
E_coul   =      4034.9791 E_long   =     -5246.5652 Press    =       -18.7665 
---------------- Step    17000 ----- CPU =   1088.7006 (sec) ----------------
TotEng   =      -795.9171 KinEng   =       190.6165 Temp     =       321.3461 
PotEng   =      -986.5335 E_bond   =         0.0000 E_angle  =         0.0000 
E_dihed  =         0.0000 E_impro  =         0.0000 E_vdwl   =       201.7952 
E_coul   =      4058.3005 E_long   =     -5246.6293 Press    =      -132.9301 
---------------- Step    17100 ----- CPU =   1095.5591 (sec) ----------------
TotEng   =      -809.2945 KinEng   =       163.4611 Temp     =       275.5669 
PotEng   =      -972.7556 E_bond   =         0.0000 E_angle  =         0.0000 
E_dihed  =         0.0000 E_impro  =         0.0000 E_vdwl   =       199.0887 
E_coul   =      4077.5198 E_long   =     -5249.3641 Press    =      -353.3960 
---------------- Step    17200 ----- CPU =   1102.3642 (sec) ----------------
TotEng   =      -787.0294 KinEng   =       201.4289 Temp     =       339.5740 
PotEng   =      -988.4583 E_bond   =         0.0000 E_angle  =         0.0000 
E_dihed  =         0.0000 E_impro  =         0.0000 E_vdwl   =       168.2745 
E_coul   =      4090.3211 E_long   =     -5247.0539 Press    =     -1192.5687 
---------------- Step    17300 ----- CPU =   1109.3277 (sec) ----------------
TotEng   =      -783.6085 KinEng   =       183.5865 Temp     =       309.4948 
PotEng   =      -967.1950 E_bond   =         0.0000 E_angle  =         0.0000 
E_dihed  =         0.0000 E_impro  =         0.0000 E_vdwl   =       204.7413 
E_coul   =      4077.1337 E_long   =     -5249.0699 Press    =       -40.1213 
---------------- Step    17400 ----- CPU =   1116.0386 (sec) ----------------
TotEng   =      -818.1042 KinEng   =       171.7499 Temp     =       289.5404 
PotEng   =      -989.8541 E_bond   =         0.0000 E_angle  =         0.0000 
E_dihed  =         0.0000 E_impro  =         0.0000 E_vdwl   =       207.2545 
E_coul   =      4052.7955 E_long   =     -5249.9041 Press    =      -201.9316 
---------------- Step    17500 ----- CPU =   1122.5183 (sec) ----------------
TotEng   =      -833.5892 KinEng   =       156.6097 Temp     =       264.0166 
PotEng   =      -990.1989 E_bond   =         0.0000 E_angle  =         0.0000 
E_dihed  =         0.0000 E_impro  =         0.0000 E_vdwl   =       215.3052 
E_coul   =      4041.9513 E_long   =     -5247.4554 Press    =        83.0336 
---------------- Step    17600 ----- CPU =   1128.5092 (sec) ----------------
TotEng   =      -798.4978 KinEng   =       169.7583 Temp     =       286.1828 
PotEng   =      -968.2560 E_bond   =         0.0000 E_angle  =         0.0000 
E_dihed  =         0.0000 E_impro  =         0.0000 E_vdwl   =       202.7245 
E_coul   =      4078.9443 E_long   =     -5249.9249 Press    =        92.7098 
---------------- Step    17700 ----- CPU =   1135.3753 (sec) ----------------
TotEng   =      -783.1791 KinEng   =       168.3725 Temp     =       283.8467 
PotEng   =      -951.5517 E_bond   =         0.0000 E_angle  =         0.0000 
E_dihed  =         0.0000 E_impro  =         0.0000 E_vdwl   =       192.0166 
E_coul   =      4105.4683 E_long   =     -5249.0366 Press    =        -7.5416 
---------------- Step    17800 ----- CPU =   1142.0152 (sec) ----------------
TotEng   =      -810.2464 KinEng   =       175.5877 Temp     =       296.0102 
PotEng   =      -985.8340 E_bond   =         0.0000 E_angle  =         0.0000 
E_dihed  =         0.0000 E_impro  =         0.0000 E_vdwl   =       202.6426 
E_coul   =      4063.0233 E_long   =     -5251.4998 Press    =         0.4505 
---------------- Step    17900 ----- CPU =   1146.6365 (sec) ----------------
TotEng   =      -843.2565 KinEng   =       176.7651 Temp     =       297.9951 
PotEng   =     -1020.0216 E_bond   =         0.0000 E_angle  =         0.0000 
E_dihed  =         0.0000 E_impro  =         0.0000 E_vdwl   =       202.7761 
E_coul   =      4028.5395 E_long   =     -5251.3372 Press    =      -557.8362 
---------------- Step    18000 ----- CPU =   1152.9027 (sec) ----------------
TotEng   =      -850.8982 KinEng   =       165.2238 Temp     =       278.5385 
PotEng   =     -1016.1220 E_bond   =         0.0000 E_angle  =         0.0000 
E_dihed  =         0.0000 E_impro  =         0.0000 E_vdwl   =       209.7878 
E_coul   =      4023.2869 E_long   =     -5249.1966 Press    =      -330.1699 
---------------- Step    18100 ----- CPU =   1159.6896 (sec) ----------------
TotEng   =      -821.7926 KinEng   =       174.4027 Temp     =       294.0126 
PotEng   =      -996.1953 E_bond   =         0.0000 E_angle  =         0.0000 
E_dihed  =         0.0000 E_impro  =         0.0000 E_vdwl   =       213.1322 
E_coul   =      4037.2204 E_long   =     -5246.5479 Press    =        42.2851 
---------------- Step    18200 ----- CPU =   1166.5315 (sec) ----------------
TotEng   =      -800.1394 KinEng   =       175.8188 Temp     =       296.3998 
PotEng   =      -975.9582 E_bond   =         0.0000 E_angle  =         0.0000 
E_dihed  =         0.0000 E_impro  =         0.0000 E_vdwl   =       223.3486 
E_coul   =      4048.3346 E_long   =     -5247.6414 Press    =       492.3629 
---------------- Step    18300 ----- CPU =   1173.3220 (sec) ----------------
TotEng   =      -835.9594 KinEng   =       175.4661 Temp     =       295.8052 
PotEng   =     -1011.4255 E_bond   =         0.0000 E_angle  =         0.0000 
E_dihed  =         0.0000 E_impro  =         0.0000 E_vdwl   =       220.1601 
E_coul   =      4018.1626 E_long   =     -5249.7482 Press    =       195.2518 
---------------- Step    18400 ----- CPU =   1180.0631 (sec) ----------------
TotEng   =      -836.7066 KinEng   =       183.5121 Temp     =       309.3694 
PotEng   =     -1020.2187 E_bond   =         0.0000 E_angle  =         0.0000 
E_dihed  =         0.0000 E_impro  =         0.0000 E_vdwl   =       172.7037 
E_coul   =      4055.3892 E_long   =     -5248.3117 Press    =     -1380.6570 
---------------- Step    18500 ----- CPU =   1186.6651 (sec) ----------------
TotEng   =      -808.6102 KinEng   =       189.8768 Temp     =       320.0992 
PotEng   =      -998.4871 E_bond   =         0.0000 E_angle  =         0.0000 
E_dihed  =         0.0000 E_impro  =         0.0000 E_vdwl   =       194.6932 
E_coul   =      4055.7469 E_long   =     -5248.9272 Press    =      -361.9453 
---------------- Step    18600 ----- CPU =   1192.8496 (sec) ----------------
TotEng   =      -798.8657 KinEng   =       212.2863 Temp     =       357.8776 
PotEng   =     -1011.1520 E_bond   =         0.0000 E_angle  =         0.0000 
E_dihed  =         0.0000 E_impro  =         0.0000 E_vdwl   =       201.8089 
E_coul   =      4036.8632 E_long   =     -5249.8241 Press    =      -278.9336 
---------------- Step    18700 ----- CPU =   1199.8238 (sec) ----------------
TotEng   =      -833.0140 KinEng   =       171.8216 Temp     =       289.6612 
PotEng   =     -1004.8356 E_bond   =         0.0000 E_angle  =         0.0000 
E_dihed  =         0.0000 E_impro  =         0.0000 E_vdwl   =       220.0301 
E_coul   =      4025.5897 E_long   =     -5250.4554 Press    =        28.3818 
---------------- Step    18800 ----- CPU =   1206.6126 (sec) ----------------
TotEng   =      -810.3683 KinEng   =       191.7471 Temp     =       323.2522 
PotEng   =     -1002.1154 E_bond   =         0.0000 E_angle  =         0.0000 
E_dihed  =         0.0000 E_impro  =         0.0000 E_vdwl   =       198.5589 
E_coul   =      4048.4051 E_long   =     -5249.0794 Press    =      -356.2916 
---------------- Step    18900 ----- CPU =   1211.8223 (sec) ----------------
TotEng   =      -837.2249 KinEng   =       180.5166 Temp     =       304.3196 
PotEng   =     -1017.7415 E_bond   =         0.0000 E_angle  =         0.0000 
E_dihed  =         0.0000 E_impro  =         0.0000 E_vdwl   =       219.0078 
E_coul   =      4011.7098 E_long   =     -5248.4591 Press    =       -13.7140 
---------------- Step    19000 ----- CPU =   1218.4237 (sec) ----------------
TotEng   =      -837.3756 KinEng   =       164.9978 Temp     =       278.1575 
PotEng   =     -1002.3734 E_bond   =         0.0000 E_angle  =         0.0000 
E_dihed  =         0.0000 E_impro  =         0.0000 E_vdwl   =       198.9381 
E_coul   =      4050.4219 E_long   =     -5251.7334 Press    =      -332.2849 
---------------- Step    19100 ----- CPU =   1225.2522 (sec) ----------------
TotEng   =      -830.2786 KinEng   =       173.7725 Temp     =       292.9501 
[...]
PotEng   =      -986.1163 E_bond   =         0.0000 E_angle  =         0.0000 
E_dihed  =         0.0000 E_impro  =         0.0000 E_vdwl   =       185.2901 
E_coul   =      4076.7035 E_long   =     -5248.1099 Press    =      -631.5968 
---------------- Step   195800 ----- CPU =  12505.6050 (sec) ----------------
TotEng   =      -798.7005 KinEng   =       170.5475 Temp     =       287.5133 
PotEng   =      -969.2480 E_bond   =         0.0000 E_angle  =         0.0000 
E_dihed  =         0.0000 E_impro  =         0.0000 E_vdwl   =       185.7763 
E_coul   =      4093.0110 E_long   =     -5248.0352 Press    =      -544.8920 
---------------- Step   195900 ----- CPU =  12508.5476 (sec) ----------------
TotEng   =      -811.5302 KinEng   =       172.7901 Temp     =       291.2939 
PotEng   =      -984.3202 E_bond   =         0.0000 E_angle  =         0.0000 
E_dihed  =         0.0000 E_impro  =         0.0000 E_vdwl   =       200.9282 
E_coul   =      4064.5432 E_long   =     -5249.7916 Press    =      -191.0902 
---------------- Step   196000 ----- CPU =  12511.4928 (sec) ----------------
TotEng   =      -816.1738 KinEng   =       164.8007 Temp     =       277.8252 
PotEng   =      -980.9745 E_bond   =         0.0000 E_angle  =         0.0000 
E_dihed  =         0.0000 E_impro  =         0.0000 E_vdwl   =       192.6112 
E_coul   =      4073.6521 E_long   =     -5247.2379 Press    =      -282.9814 
---------------- Step   196100 ----- CPU =  12514.4269 (sec) ----------------
TotEng   =      -800.5190 KinEng   =       173.5270 Temp     =       292.5362 
PotEng   =      -974.0460 E_bond   =         0.0000 E_angle  =         0.0000 
E_dihed  =         0.0000 E_impro  =         0.0000 E_vdwl   =       176.3978 
E_coul   =      4098.3792 E_long   =     -5248.8230 Press    =      -765.1463 
---------------- Step   196200 ----- CPU =  12517.3708 (sec) ----------------
TotEng   =      -776.8973 KinEng   =       187.8185 Temp     =       316.6292 
PotEng   =      -964.7158 E_bond   =         0.0000 E_angle  =         0.0000 
E_dihed  =         0.0000 E_impro  =         0.0000 E_vdwl   =       186.9688 
E_coul   =      4095.7555 E_long   =     -5247.4400 Press    =      -279.2687 
---------------- Step   196300 ----- CPU =  12520.3141 (sec) ----------------
TotEng   =      -783.6775 KinEng   =       190.1158 Temp     =       320.5020 
PotEng   =      -973.7933 E_bond   =         0.0000 E_angle  =         0.0000 
E_dihed  =         0.0000 E_impro  =         0.0000 E_vdwl   =       195.3246 
E_coul   =      4080.4116 E_long   =     -5249.5295 Press    =      -260.2111 
---------------- Step   196400 ----- CPU =  12523.2496 (sec) ----------------
TotEng   =      -817.1419 KinEng   =       178.4294 Temp     =       300.8008 
PotEng   =      -995.5713 E_bond   =         0.0000 E_angle  =         0.0000 
E_dihed  =         0.0000 E_impro  =         0.0000 E_vdwl   =       214.3317 
E_coul   =      4038.9512 E_long   =     -5248.8542 Press    =       112.8219 
---------------- Step   196500 ----- CPU =  12526.1947 (sec) ----------------
TotEng   =      -833.8111 KinEng   =       167.0504 Temp     =       281.6178 
PotEng   =     -1000.8615 E_bond   =         0.0000 E_angle  =         0.0000 
E_dihed  =         0.0000 E_impro  =         0.0000 E_vdwl   =       195.5448 
E_coul   =      4057.1715 E_long   =     -5253.5778 Press    =      -481.4595 
---------------- Step   196600 ----- CPU =  12529.1295 (sec) ----------------
TotEng   =      -838.8354 KinEng   =       162.5993 Temp     =       274.1140 
PotEng   =     -1001.4347 E_bond   =         0.0000 E_angle  =         0.0000 
E_dihed  =         0.0000 E_impro  =         0.0000 E_vdwl   =       224.7816 
E_coul   =      4023.7365 E_long   =     -5249.9528 Press    =       394.9939 
---------------- Step   196700 ----- CPU =  12532.0711 (sec) ----------------
TotEng   =      -806.3498 KinEng   =       168.9505 Temp     =       284.8210 
PotEng   =      -975.3002 E_bond   =         0.0000 E_angle  =         0.0000 
E_dihed  =         0.0000 E_impro  =         0.0000 E_vdwl   =       187.5561 
E_coul   =      4086.3802 E_long   =     -5249.2365 Press    =      -590.3443 
---------------- Step   196800 ----- CPU =  12534.9532 (sec) ----------------
TotEng   =      -777.4176 KinEng   =       201.7913 Temp     =       340.1849 
PotEng   =      -979.2089 E_bond   =         0.0000 E_angle  =         0.0000 
E_dihed  =         0.0000 E_impro  =         0.0000 E_vdwl   =       163.2927 
E_coul   =      4103.8046 E_long   =     -5246.3062 Press    =     -1028.0854 
---------------- Step   196900 ----- CPU =  12537.7317 (sec) ----------------
TotEng   =      -796.2603 KinEng   =       184.0579 Temp     =       310.2894 
PotEng   =      -980.3181 E_bond   =         0.0000 E_angle  =         0.0000 
E_dihed  =         0.0000 E_impro  =         0.0000 E_vdwl   =       174.7980 
E_coul   =      4096.9067 E_long   =     -5252.0229 Press    =      -740.4317 
---------------- Step   197000 ----- CPU =  12540.5028 (sec) ----------------
TotEng   =      -820.5146 KinEng   =       170.4986 Temp     =       287.4309 
PotEng   =      -991.0132 E_bond   =         0.0000 E_angle  =         0.0000 
E_dihed  =         0.0000 E_impro  =         0.0000 E_vdwl   =       197.7778 
E_coul   =      4060.6208 E_long   =     -5249.4118 Press    =      -236.2625 
---------------- Step   197100 ----- CPU =  12543.2669 (sec) ----------------
TotEng   =      -818.9562 KinEng   =       189.7092 Temp     =       319.8167 
PotEng   =     -1008.6655 E_bond   =         0.0000 E_angle  =         0.0000 
E_dihed  =         0.0000 E_impro  =         0.0000 E_vdwl   =       207.0021 
E_coul   =      4034.0213 E_long   =     -5249.6889 Press    =      -150.4365 
---------------- Step   197200 ----- CPU =  12545.9569 (sec) ----------------
TotEng   =      -848.7163 KinEng   =       163.0110 Temp     =       274.8081 
PotEng   =     -1011.7273 E_bond   =         0.0000 E_angle  =         0.0000 
E_dihed  =         0.0000 E_impro  =         0.0000 E_vdwl   =       196.5078 
E_coul   =      4041.3695 E_long   =     -5249.6045 Press    =      -662.4827 
---------------- Step   197300 ----- CPU =  12548.6098 (sec) ----------------
TotEng   =      -825.6222 KinEng   =       168.3302 Temp     =       283.7754 
PotEng   =      -993.9524 E_bond   =         0.0000 E_angle  =         0.0000 
E_dihed  =         0.0000 E_impro  =         0.0000 E_vdwl   =       192.8670 
E_coul   =      4061.0068 E_long   =     -5247.8262 Press    =      -404.3114 
---------------- Step   197400 ----- CPU =  12551.2585 (sec) ----------------
TotEng   =      -813.2198 KinEng   =       180.6231 Temp     =       304.4990 
PotEng   =      -993.8429 E_bond   =         0.0000 E_angle  =         0.0000 
E_dihed  =         0.0000 E_impro  =         0.0000 E_vdwl   =       162.7103 
E_coul   =      4093.6358 E_long   =     -5250.1890 Press    =     -1228.5760 
---------------- Step   197500 ----- CPU =  12553.9134 (sec) ----------------
TotEng   =      -809.9682 KinEng   =       175.8924 Temp     =       296.5240 
PotEng   =      -985.8606 E_bond   =         0.0000 E_angle  =         0.0000 
E_dihed  =         0.0000 E_impro  =         0.0000 E_vdwl   =       176.9481 
E_coul   =      4087.9402 E_long   =     -5250.7490 Press    =      -800.1742 
---------------- Step   197600 ----- CPU =  12556.5750 (sec) ----------------
TotEng   =      -798.6176 KinEng   =       193.3357 Temp     =       325.9302 
PotEng   =      -991.9533 E_bond   =         0.0000 E_angle  =         0.0000 
E_dihed  =         0.0000 E_impro  =         0.0000 E_vdwl   =       191.2613 
E_coul   =      4065.1726 E_long   =     -5248.3872 Press    =      -411.7964 
---------------- Step   197700 ----- CPU =  12559.2304 (sec) ----------------
TotEng   =      -833.2018 KinEng   =       158.4214 Temp     =       267.0708 
PotEng   =      -991.6232 E_bond   =         0.0000 E_angle  =         0.0000 
E_dihed  =         0.0000 E_impro  =         0.0000 E_vdwl   =       174.1288 
E_coul   =      4082.1408 E_long   =     -5247.8928 Press    =     -1135.1740 
---------------- Step   197800 ----- CPU =  12561.8015 (sec) ----------------
TotEng   =      -818.7512 KinEng   =       186.7439 Temp     =       314.8177 
PotEng   =     -1005.4951 E_bond   =         0.0000 E_angle  =         0.0000 
E_dihed  =         0.0000 E_impro  =         0.0000 E_vdwl   =       221.1438 
E_coul   =      4022.3001 E_long   =     -5248.9391 Press    =       188.1736 
---------------- Step   197900 ----- CPU =  12564.3443 (sec) ----------------
TotEng   =      -816.5765 KinEng   =       186.2430 Temp     =       313.9731 
PotEng   =     -1002.8194 E_bond   =         0.0000 E_angle  =         0.0000 
E_dihed  =         0.0000 E_impro  =         0.0000 E_vdwl   =       190.7147 
E_coul   =      4056.7861 E_long   =     -5250.3203 Press    =      -329.6242 
---------------- Step   198000 ----- CPU =  12566.8910 (sec) ----------------
TotEng   =      -808.8687 KinEng   =       177.2539 Temp     =       298.8192 
PotEng   =      -986.1226 E_bond   =         0.0000 E_angle  =         0.0000 
E_dihed  =         0.0000 E_impro  =         0.0000 E_vdwl   =       194.2504 
E_coul   =      4069.7218 E_long   =     -5250.0948 Press    =      -311.4521 
---------------- Step   198100 ----- CPU =  12569.4312 (sec) ----------------
TotEng   =      -797.6023 KinEng   =       186.9105 Temp     =       315.0985 
PotEng   =      -984.5128 E_bond   =         0.0000 E_angle  =         0.0000 
E_dihed  =         0.0000 E_impro  =         0.0000 E_vdwl   =       185.5946 
E_coul   =      4076.2860 E_long   =     -5246.3934 Press    =      -800.5219 
---------------- Step   198200 ----- CPU =  12571.9726 (sec) ----------------
TotEng   =      -822.0640 KinEng   =       174.7149 Temp     =       294.5388 
PotEng   =      -996.7788 E_bond   =         0.0000 E_angle  =         0.0000 
E_dihed  =         0.0000 E_impro  =         0.0000 E_vdwl   =       209.4719 
E_coul   =      4045.2830 E_long   =     -5251.5336 Press    =      -107.9735 
---------------- Step   198300 ----- CPU =  12574.4256 (sec) ----------------
TotEng   =      -820.9959 KinEng   =       181.2884 Temp     =       305.6206 
PotEng   =     -1002.2843 E_bond   =         0.0000 E_angle  =         0.0000 
E_dihed  =         0.0000 E_impro  =         0.0000 E_vdwl   =       206.4914 
E_coul   =      4043.4039 E_long   =     -5252.1796 Press    =       -88.4195 
---------------- Step   198400 ----- CPU =  12576.8669 (sec) ----------------
TotEng   =      -808.7278 KinEng   =       180.1473 Temp     =       303.6970 
PotEng   =      -988.8751 E_bond   =         0.0000 E_angle  =         0.0000 
E_dihed  =         0.0000 E_impro  =         0.0000 E_vdwl   =       180.6045 
E_coul   =      4079.5266 E_long   =     -5249.0063 Press    =      -750.8518 
---------------- Step   198500 ----- CPU =  12579.3107 (sec) ----------------
TotEng   =      -778.7372 KinEng   =       196.9020 Temp     =       331.9425 
PotEng   =      -975.6392 E_bond   =         0.0000 E_angle  =         0.0000 
E_dihed  =         0.0000 E_impro  =         0.0000 E_vdwl   =       189.6401 
E_coul   =      4086.6979 E_long   =     -5251.9773 Press    =      -289.0047 
---------------- Step   198600 ----- CPU =  12581.7587 (sec) ----------------
TotEng   =      -803.5717 KinEng   =       181.3676 Temp     =       305.7542 
PotEng   =      -984.9393 E_bond   =         0.0000 E_angle  =         0.0000 
E_dihed  =         0.0000 E_impro  =         0.0000 E_vdwl   =       181.9279 
E_coul   =      4082.6446 E_long   =     -5249.5118 Press    =      -648.0684 
---------------- Step   198700 ----- CPU =  12584.2166 (sec) ----------------
TotEng   =      -815.1681 KinEng   =       167.3962 Temp     =       282.2007 
PotEng   =      -982.5643 E_bond   =         0.0000 E_angle  =         0.0000 
E_dihed  =         0.0000 E_impro  =         0.0000 E_vdwl   =       165.9786 
E_coul   =      4099.3089 E_long   =     -5247.8517 Press    =      -985.9211 
---------------- Step   198800 ----- CPU =  12586.6450 (sec) ----------------
TotEng   =      -778.5475 KinEng   =       184.4500 Temp     =       310.9505 
PotEng   =      -962.9974 E_bond   =         0.0000 E_angle  =         0.0000 
E_dihed  =         0.0000 E_impro  =         0.0000 E_vdwl   =       195.9258 
E_coul   =      4088.6848 E_long   =     -5247.6081 Press    =       -10.9703 
---------------- Step   198900 ----- CPU =  12589.0600 (sec) ----------------
TotEng   =      -792.3294 KinEng   =       178.0146 Temp     =       300.1016 
PotEng   =      -970.3440 E_bond   =         0.0000 E_angle  =         0.0000 
E_dihed  =         0.0000 E_impro  =         0.0000 E_vdwl   =       190.4600 
E_coul   =      4088.5224 E_long   =     -5249.3263 Press    =      -577.9080 
---------------- Step   199000 ----- CPU =  12591.4199 (sec) ----------------
TotEng   =      -791.3743 KinEng   =       168.1649 Temp     =       283.4966 
PotEng   =      -959.5392 E_bond   =         0.0000 E_angle  =         0.0000 
E_dihed  =         0.0000 E_impro  =         0.0000 E_vdwl   =       196.6861 
E_coul   =      4090.7288 E_long   =     -5246.9542 Press    =      -290.3272 
---------------- Step   199100 ----- CPU =  12593.7673 (sec) ----------------
TotEng   =      -769.8349 KinEng   =       204.5045 Temp     =       344.7589 
PotEng   =      -974.3394 E_bond   =         0.0000 E_angle  =         0.0000 
E_dihed  =         0.0000 E_impro  =         0.0000 E_vdwl   =       199.0981 
E_coul   =      4071.3538 E_long   =     -5244.7913 Press    =      -104.4305 
---------------- Step   199200 ----- CPU =  12596.1186 (sec) ----------------
TotEng   =      -807.2591 KinEng   =       169.5272 Temp     =       285.7933 
PotEng   =      -976.7863 E_bond   =         0.0000 E_angle  =         0.0000 
E_dihed  =         0.0000 E_impro  =         0.0000 E_vdwl   =       178.6461 
E_coul   =      4090.4477 E_long   =     -5245.8801 Press    =      -890.0400 
---------------- Step   199300 ----- CPU =  12598.3915 (sec) ----------------
TotEng   =      -797.7088 KinEng   =       168.4796 Temp     =       284.0272 
PotEng   =      -966.1883 E_bond   =         0.0000 E_angle  =         0.0000 
E_dihed  =         0.0000 E_impro  =         0.0000 E_vdwl   =       205.9332 
E_coul   =      4076.3346 E_long   =     -5248.4561 Press    =       -40.6877 
---------------- Step   199400 ----- CPU =  12600.6735 (sec) ----------------
TotEng   =      -781.4300 KinEng   =       202.2165 Temp     =       340.9017 
PotEng   =      -983.6465 E_bond   =         0.0000 E_angle  =         0.0000 
E_dihed  =         0.0000 E_impro  =         0.0000 E_vdwl   =       214.9298 
E_coul   =      4050.1993 E_long   =     -5248.7756 Press    =       285.6926 
---------------- Step   199500 ----- CPU =  12602.8775 (sec) ----------------
TotEng   =      -814.0691 KinEng   =       173.0600 Temp     =       291.7489 
PotEng   =      -987.1290 E_bond   =         0.0000 E_angle  =         0.0000 
E_dihed  =         0.0000 E_impro  =         0.0000 E_vdwl   =       204.6598 
E_coul   =      4056.5883 E_long   =     -5248.3771 Press    =      -110.8462 
---------------- Step   199600 ----- CPU =  12605.0770 (sec) ----------------
TotEng   =      -828.0722 KinEng   =       173.8278 Temp     =       293.0433 
PotEng   =     -1001.8999 E_bond   =         0.0000 E_angle  =         0.0000 
E_dihed  =         0.0000 E_impro  =         0.0000 E_vdwl   =       230.9246 
E_coul   =      4017.7735 E_long   =     -5250.5981 Press    =       592.8097 
---------------- Step   199700 ----- CPU =  12607.2711 (sec) ----------------
TotEng   =      -845.4559 KinEng   =       164.7062 Temp     =       277.6659 
PotEng   =     -1010.1621 E_bond   =         0.0000 E_angle  =         0.0000 
E_dihed  =         0.0000 E_impro  =         0.0000 E_vdwl   =       186.2850 
E_coul   =      4052.8419 E_long   =     -5249.2890 Press    =     -1012.1434 
---------------- Step   199800 ----- CPU =  12609.4965 (sec) ----------------
TotEng   =      -814.4936 KinEng   =       193.3308 Temp     =       325.9220 
PotEng   =     -1007.8244 E_bond   =         0.000  E_angle  =         0.0000 
E_dihed  =         0.0000 E_impro  =         0.0000 E_vdwl   =       184.0319 
E_coul   =      4058.3820 E_long   =     -5250.2382 Press    =      -884.3898 
---------------- Step   199900 ----- CPU =  12611.6920 (sec) ----------------
TotEng   =      -808.6461 KinEng   =       176.5409 Temp     =       297.6172 
PotEng   =      -985.1870 E_bond   =         0.0000 E_angle  =         0.0000 
E_dihed  =         0.0000 E_impro  =         0.0000 E_vdwl   =       196.7193 
E_coul   =      4069.3927 E_long   =     -5251.2991 Press    =      -377.3505 
---------------- Step   200000 ----- CPU =  12613.8875 (sec) ----------------
TotEng   =      -780.1912 KinEng   =       189.3618 Temp     =       319.2309 
PotEng   =      -969.5529 E_bond   =         0.0000 E_angle  =         0.0000 
E_dihed  =         0.0000 E_impro  =         0.0000 E_vdwl   =       185.9929 
E_coul   =      4094.8346 E_long   =     -5250.3805 Press    =      -361.7046 
---------------- Step   200100 ----- CPU =  12616.0132 (sec) ----------------
TotEng   =      -802.7394 KinEng   =       171.9767 Temp     =       289.9227 
PotEng   =      -974.7161 E_bond   =         0.0000 E_angle  =         0.0000 
E_dihed  =         0.0000 E_impro  =         0.0000 E_vdwl   =       180.2528 
E_coul   =      4094.0149 E_long   =     -5248.9838 Press    =      -583.9528 
---------------- Step   200200 ----- CPU =  12618.1359 (sec) ----------------
TotEng   =      -793.9401 KinEng   =       186.9713 Temp     =       315.2011 
PotEng   =      -980.9114 E_bond   =         0.0000 E_angle  =         0.0000 
E_dihed  =         0.0000 E_impro  =         0.0000 E_vdwl   =       232.0793 
E_coul   =      4037.5242 E_long   =     -5250.5149 Press    =       605.2268 
---------------- Step   200300 ----- CPU =  12620.2783 (sec) ----------------
TotEng   =      -829.5635 KinEng   =       170.9911 Temp     =       288.2611 
PotEng   =     -1000.5545 E_bond   =         0.0000 E_angle  =         0.0000 
E_dihed  =         0.0000 E_impro  =         0.0000 E_vdwl   =       189.7916 
E_coul   =      4059.4860 E_long   =     -5249.8321 Press    =      -872.0788 
---------------- Step   200400 ----- CPU =  12622.3993 (sec) ----------------
TotEng   =      -817.6485 KinEng   =       192.3746 Temp     =       324.3100 
PotEng   =     -1010.0231 E_bond   =         0.0000 E_angle  =         0.0000 
E_dihed  =         0.0000 E_impro  =         0.0000 E_vdwl   =       221.9166 
E_coul   =      4017.1577 E_long   =     -5249.0974 Press    =       114.4362 
Loop time of 12622.4 on 1 procs for 200000 steps with 300 atoms

Performance: 2.738 ns/day, 8.766 hours/ns, 15.845 timesteps/s
99.6% CPU use with 1 MPI tasks x no OpenMP threads

MPI task timing breakdown:
Section |  min time  |  avg time  |  max time  |%varavg| %total
---------------------------------------------------------------
Pair    | 810.88     | 810.88     | 810.88     |   0.0 |  6.42
Bond    | 0.76108    | 0.76108    | 0.76108    |   0.0 |  0.01
Kspace  | 11674      | 11674      | 11674      |   0.0 | 92.48
Neigh   | 89.854     | 89.854     | 89.854     |   0.0 |  0.71
Comm    | 24.481     | 24.481     | 24.481     |   0.0 |  0.19
Output  | 0.36967    | 0.36967    | 0.36967    |   0.0 |  0.00
Modify  | 19.072     | 19.072     | 19.072     |   0.0 |  0.15
Other   |            | 3.258      |            |       |  0.03

Nlocal:    300 ave 300 max 300 min
Histogram: 1 0 0 0 0 0 0 0 0 0
Nghost:    5432 ave 5432 max 5432 min
Histogram: 1 0 0 0 0 0 0 0 0 0
Neighs:    106738 ave 106738 max 106738 min
Histogram: 1 0 0 0 0 0 0 0 0 0

Total # of neighbors = 106738
Ave neighs/atom = 355.793
Ave special neighs/atom = 2
Neighbor list builds = 14438
Dangerous builds = 929
Total wall time: 3:30:51
