LAMMPS (16 Jul 2018)
units real
atom_style full
timestep 2

dimension 3
boundary p p p

bond_style hybrid harmonic
angle_style hybrid harmonic
special_bonds lj 0.0 0.0 0.5 coul 0.0 0.0 0.5

read_data water.lmp
  orthogonal box = (-9.99433 -9.94614 -9.75334) to (10.0057 10.0539 10.2467)
  1 by 1 by 1 MPI processor grid
  reading atoms ...
  300 atoms
  reading velocities ...
  300 velocities
  scanning bonds ...
  2 = max bonds/atom
  scanning angles ...
  1 = max angles/atom
  reading bonds ...
  200 bonds
  reading angles ...
  100 angles
  2 = max # of 1-2 neighbors
  1 = max # of 1-3 neighbors
  1 = max # of 1-4 neighbors
  2 = max # of special neighbors

pair_style lj/cut/coul/long 15.0 15.0
pair_modify tail yes
kspace_style pppm 1e-8

pair_coeff 1 1   0.1554001   3.1655700
pair_coeff 2 2   0.0000000   0.0000000

pair_modify mix geometric

fix settle all shake 0.000001 100 0 t 1 2 a 1 2 3 4 5 6 7 8 9 10  11 12 13 14 15 16 17 18 19 20  21 22 23 24 25 26 27 28 29 30  31 32 33 34 35 36 37 38 39 40  41 42 43 44 45 46 47 48 49 50  51 52 53 54 55 56 57 58 59 60  61 62 63 64 65 66 67 68 69 70  71 72 73 74 75 76 77 78 79 80  81 82 83 84 85 86 87 88 89 90  91 92 93 94 95 96 97 98 99 100
  0 = # of size 2 clusters
  0 = # of size 3 clusters
  0 = # of size 4 clusters
  100 = # of frozen angles
fix 1 all nvt temp 1.0 300.0 100.0

run 100
PPPM initialization ...
  using 12-bit tables for long-range coulomb (../kspace.cpp:321)
WARNING: For better accuracy use 'pair_modify table 0' (../kspace.cpp:342)
  G vector (1/distance) = 0.260442
  grid = 45 45 45
  stencil order = 5
  estimated absolute RMS force accuracy = 1.12127e-05
  estimated relative force accuracy = 3.37668e-08
  using double precision FFTs
  3d grid and FFT values/proc = 157464 91125
Neighbor list info ...
  update every 1 steps, delay 10 steps, check yes
  max neighbors/atom: 2000, page size: 100000
  master list distance cutoff = 17
  ghost atom cutoff = 17
  binsize = 8.5, bins = 3 3 3
  1 neighbor lists, perpetual/occasional/extra = 1 0 0
  (1) pair lj/cut/coul/long, perpetual
      attributes: half, newton on
      pair build: half/bin/newton
      stencil: half/bin/3d/newton
      bin: standard
Per MPI rank memory allocation (min/avg/max) = 22.07 | 22.07 | 22.07 Mbytes
Step Temp E_pair E_mol TotEng Press 
       0            0   -970.78082            0   -970.78082   -651.37695 
     100    162.74291   -1112.5549            0   -1016.0188   -331.84879 
Loop time of 2.41758 on 1 procs for 100 steps with 300 atoms

Performance: 7.148 ns/day, 3.358 hours/ns, 41.364 timesteps/s
99.8% CPU use with 1 MPI tasks x no OpenMP threads

MPI task timing breakdown:
Section |  min time  |  avg time  |  max time  |%varavg| %total
---------------------------------------------------------------
Pair    | 0.19905    | 0.19905    | 0.19905    |   0.0 |  8.23
Bond    | 7.5579e-05 | 7.5579e-05 | 7.5579e-05 |   0.0 |  0.00
Kspace  | 2.2025     | 2.2025     | 2.2025     |   0.0 | 91.10
Neigh   | 0.0084503  | 0.0084503  | 0.0084503  |   0.0 |  0.35
Comm    | 0.003202   | 0.003202   | 0.003202   |   0.0 |  0.13
Output  | 2.3603e-05 | 2.3603e-05 | 2.3603e-05 |   0.0 |  0.00
Modify  | 0.0035806  | 0.0035806  | 0.0035806  |   0.0 |  0.15
Other   |            | 0.0006828  |            |       |  0.03

Nlocal:    300 ave 300 max 300 min
Histogram: 1 0 0 0 0 0 0 0 0 0
Nghost:    5361 ave 5361 max 5361 min
Histogram: 1 0 0 0 0 0 0 0 0 0
Neighs:    105494 ave 105494 max 105494 min
Histogram: 1 0 0 0 0 0 0 0 0 0

Total # of neighbors = 105494
Ave neighs/atom = 351.647
Ave special neighs/atom = 2
Neighbor list builds = 3
Dangerous builds = 0

fix 1 all nvt temp 300.0 300.0 100.0

run 300
PPPM initialization ...
  using 12-bit tables for long-range coulomb (../kspace.cpp:321)
WARNING: For better accuracy use 'pair_modify table 0' (../kspace.cpp:342)
  G vector (1/distance) = 0.260442
  grid = 45 45 45
  stencil order = 5
  estimated absolute RMS force accuracy = 1.12127e-05
  estimated relative force accuracy = 3.37668e-08
  using double precision FFTs
  3d grid and FFT values/proc = 157464 91125
Per MPI rank memory allocation (min/avg/max) = 22.07 | 22.07 | 22.07 Mbytes
Step Temp E_pair E_mol TotEng Press 
     100    162.74291   -1112.5549            0   -1016.0188   -331.19293 
     400    341.08491   -1011.2674            0    -808.9422   -592.30459 
Loop time of 6.95246 on 1 procs for 300 steps with 300 atoms

Performance: 7.456 ns/day, 3.219 hours/ns, 43.150 timesteps/s
100.0% CPU use with 1 MPI tasks x no OpenMP threads

MPI task timing breakdown:
Section |  min time  |  avg time  |  max time  |%varavg| %total
---------------------------------------------------------------
Pair    | 0.58525    | 0.58525    | 0.58525    |   0.0 |  8.42
Bond    | 0.00014353 | 0.00014353 | 0.00014353 |   0.0 |  0.00
Kspace  | 6.2999     | 6.2999     | 6.2999     |   0.0 | 90.61
Neigh   | 0.046582   | 0.046582   | 0.046582   |   0.0 |  0.67
Comm    | 0.009109   | 0.009109   | 0.009109   |   0.0 |  0.13
Output  | 2.3842e-05 | 2.3842e-05 | 2.3842e-05 |   0.0 |  0.00
Modify  | 0.0097072  | 0.0097072  | 0.0097072  |   0.0 |  0.14
Other   |            | 0.001788   |            |       |  0.03

Nlocal:    300 ave 300 max 300 min
Histogram: 1 0 0 0 0 0 0 0 0 0
Nghost:    5368 ave 5368 max 5368 min
Histogram: 1 0 0 0 0 0 0 0 0 0
Neighs:    106217 ave 106217 max 106217 min
Histogram: 1 0 0 0 0 0 0 0 0 0

Total # of neighbors = 106217
Ave neighs/atom = 354.057
Ave special neighs/atom = 2
Neighbor list builds = 16
Dangerous builds = 1

thermo_style multi
thermo 100
dump myDump all custom 1000 dump.atom x y z vx vy vz

run 20000
PPPM initialization ...
  using 12-bit tables for long-range coulomb (../kspace.cpp:321)
WARNING: For better accuracy use 'pair_modify table 0' (../kspace.cpp:342)
  G vector (1/distance) = 0.260442
  grid = 45 45 45
  stencil order = 5
  estimated absolute RMS force accuracy = 1.12127e-05
  estimated relative force accuracy = 3.37668e-08
  using double precision FFTs
  3d grid and FFT values/proc = 157464 91125
Per MPI rank memory allocation (min/avg/max) = 22.07 | 22.07 | 22.07 Mbytes
---------------- Step      400 ----- CPU =      0.0000 (sec) ----------------
TotEng   =      -808.9422 KinEng   =       202.3252 Temp     =       341.0849 
PotEng   =     -1011.2674 E_bond   =         0.0000 E_angle  =         0.0000 
E_dihed  =         0.0000 E_impro  =         0.0000 E_vdwl   =       195.9256 
E_coul   =      4044.4966 E_long   =     -5251.6895 Press    =      -592.1935 
---------------- Step      500 ----- CPU =      2.5476 (sec) ----------------
TotEng   =      -828.6133 KinEng   =       153.2861 Temp     =       258.4136 
PotEng   =      -981.8993 E_bond   =         0.0000 E_angle  =         0.0000 
E_dihed  =         0.0000 E_impro  =         0.0000 E_vdwl   =       200.9768 
E_coul   =      4064.4585 E_long   =     -5247.3347 Press    =      -342.6287 
---------------- Step      600 ----- CPU =      4.8828 (sec) ----------------
TotEng   =      -800.2965 KinEng   =       178.8122 Temp     =       301.4462 
PotEng   =      -979.1087 E_bond   =         0.0000 E_angle  =         0.0000 
E_dihed  =         0.0000 E_impro  =         0.0000 E_vdwl   =       188.0925 
E_coul   =      4081.5312 E_long   =     -5248.7324 Press    =      -565.4458 
---------------- Step      700 ----- CPU =      7.3964 (sec) ----------------
TotEng   =      -785.3043 KinEng   =       186.8070 Temp     =       314.9241 
PotEng   =      -972.1113 E_bond   =         0.0000 E_angle  =         0.0000 
E_dihed  =         0.0000 E_impro  =         0.0000 E_vdwl   =       208.1356 
E_coul   =      4067.9356 E_long   =     -5248.1825 Press    =       165.0043 
---------------- Step      800 ----- CPU =     10.0341 (sec) ----------------
TotEng   =      -821.1566 KinEng   =       166.2009 Temp     =       280.1857 
PotEng   =      -987.3575 E_bond   =         0.0000 E_angle  =         0.0000 
E_dihed  =         0.0000 E_impro  =         0.0000 E_vdwl   =       219.1420 
E_coul   =      4042.2831 E_long   =     -5248.7826 Press    =       368.5766 
---------------- Step      900 ----- CPU =     12.4123 (sec) ----------------
TotEng   =      -805.5468 KinEng   =       189.4315 Temp     =       319.3485 
PotEng   =      -994.9784 E_bond   =         0.0000 E_angle  =         0.0000 
E_dihed  =         0.0000 E_impro  =         0.0000 E_vdwl   =       196.8360 
E_coul   =      4056.8522 E_long   =     -5248.6665 Press    =      -286.4514 
---------------- Step     1000 ----- CPU =     14.7958 (sec) ----------------
TotEng   =      -832.5974 KinEng   =       167.2064 Temp     =       281.8808 
PotEng   =      -999.8038 E_bond   =         0.0000 E_angle  =         0.0000 
E_dihed  =         0.0000 E_impro  =         0.0000 E_vdwl   =       197.7488 
E_coul   =      4052.5046 E_long   =     -5250.0573 Press    =      -623.5221 
---------------- Step     1100 ----- CPU =     17.1065 (sec) ----------------
TotEng   =      -817.4669 KinEng   =       183.9354 Temp     =       310.0830 
PotEng   =     -1001.4022 E_bond   =         0.0000 E_angle  =         0.0000 
E_dihed  =         0.0000 E_impro  =         0.0000 E_vdwl   =       246.1800 
E_coul   =      4002.0344 E_long   =     -5249.6167 Press    =       989.4419 
---------------- Step     1200 ----- CPU =     19.4691 (sec) ----------------
TotEng   =      -804.8520 KinEng   =       182.2022 Temp     =       307.1612 
PotEng   =      -987.0542 E_bond   =         0.0000 E_angle  =         0.0000 
E_dihed  =         0.0000 E_impro  =         0.0000 E_vdwl   =       194.3332 
E_coul   =      4066.8211 E_long   =     -5248.2085 Press    =      -328.7459 
---------------- Step     1300 ----- CPU =     21.7897 (sec) ----------------
TotEng   =      -811.1001 KinEng   =       173.2896 Temp     =       292.1361 
PotEng   =      -984.3897 E_bond   =         0.0000 E_angle  =         0.0000 
E_dihed  =         0.0000 E_impro  =         0.0000 E_vdwl   =       189.0556 
E_coul   =      4073.6814 E_long   =     -5247.1267 Press    =      -604.9664 
---------------- Step     1400 ----- CPU =     24.0816 (sec) ----------------
TotEng   =      -812.9342 KinEng   =       181.5110 Temp     =       305.9959 
PotEng   =      -994.4452 E_bond   =         0.0000 E_angle  =         0.0000 
E_dihed  =         0.0000 E_impro  =         0.0000 E_vdwl   =       204.4996 
E_coul   =      4049.2020 E_long   =     -5248.1468 Press    =      -230.0250 
---------------- Step     1500 ----- CPU =     26.3927 (sec) ----------------
TotEng   =      -827.1658 KinEng   =       179.9160 Temp     =       303.3070 
PotEng   =     -1007.0818 E_bond   =         0.0000 E_angle  =         0.0000 
E_dihed  =         0.0000 E_impro  =         0.0000 E_vdwl   =       210.0608 
E_coul   =      4032.8822 E_long   =     -5250.0248 Press    =      -119.5416 
---------------- Step     1600 ----- CPU =     28.7879 (sec) ----------------
TotEng   =      -844.5570 KinEng   =       162.1498 Temp     =       273.3563 
PotEng   =     -1006.7068 E_bond   =         0.0000 E_angle  =         0.0000 
E_dihed  =         0.0000 E_impro  =         0.0000 E_vdwl   =       212.5515 
E_coul   =      4029.8340 E_long   =     -5249.0923 Press    =         7.8300 
---------------- Step     1700 ----- CPU =     31.1948 (sec) ----------------
TotEng   =      -808.5050 KinEng   =       174.1005 Temp     =       293.5030 
PotEng   =      -982.6055 E_bond   =         0.0000 E_angle  =         0.0000 
E_dihed  =         0.0000 E_impro  =         0.0000 E_vdwl   =       204.9558 
E_coul   =      4060.8021 E_long   =     -5248.3635 Press    =        63.3384 
---------------- Step     1800 ----- CPU =     33.5655 (sec) ----------------
TotEng   =      -812.5234 KinEng   =       181.3359 Temp     =       305.7007 
PotEng   =      -993.8593 E_bond   =         0.0000 E_angle  =         0.0000 
E_dihed  =         0.0000 E_impro  =         0.0000 E_vdwl   =       193.6451 
E_coul   =      4060.6041 E_long   =     -5248.1084 Press    =      -491.8032 
---------------- Step     1900 ----- CPU =     35.9907 (sec) ----------------
TotEng   =      -849.4437 KinEng   =       163.7210 Temp     =       276.0050 
PotEng   =     -1013.1647 E_bond   =         0.0000 E_angle  =         0.0000 
E_dihed  =         0.0000 E_impro  =         0.0000 E_vdwl   =       204.5915 
E_coul   =      4032.3482 E_long   =     -5250.1044 Press    =      -483.0319 
---------------- Step     2000 ----- CPU =     38.3779 (sec) ----------------
TotEng   =      -817.2176 KinEng   =       177.8055 Temp     =       299.7490 
PotEng   =      -995.0231 E_bond   =         0.0000 E_angle  =         0.0000 
E_dihed  =         0.0000 E_impro  =         0.0000 E_vdwl   =       187.2559 
E_coul   =      4068.1570 E_long   =     -5250.4360 Press    =      -696.8209 
---------------- Step     2100 ----- CPU =     40.7756 (sec) ----------------
TotEng   =      -790.1964 KinEng   =       199.0307 Temp     =       335.5310 
PotEng   =      -989.2271 E_bond   =         0.0000 E_angle  =         0.0000 
E_dihed  =         0.0000 E_impro  =         0.0000 E_vdwl   =       225.0478 
E_coul   =      4034.1745 E_long   =     -5248.4494 Press    =       331.7471 
---------------- Step     2200 ----- CPU =     43.3731 (sec) ----------------
TotEng   =      -815.8189 KinEng   =       176.0856 Temp     =       296.8495 
PotEng   =      -991.9044 E_bond   =         0.0000 E_angle  =         0.0000 
E_dihed  =         0.0000 E_impro  =         0.0000 E_vdwl   =       172.4548 
E_coul   =      4085.5386 E_long   =     -5249.8978 Press    =     -1251.3747 
---------------- Step     2300 ----- CPU =     45.9293 (sec) ----------------
TotEng   =      -784.8809 KinEng   =       191.8689 Temp     =       323.4575 
PotEng   =      -976.7498 E_bond   =         0.0000 E_angle  =         0.0000 
E_dihed  =         0.0000 E_impro  =         0.0000 E_vdwl   =       197.8407 
E_coul   =      4074.6765 E_long   =     -5249.2670 Press    =       -80.4404 
---------------- Step     2400 ----- CPU =     48.5483 (sec) ----------------
TotEng   =      -788.2362 KinEng   =       173.9967 Temp     =       293.3281 
PotEng   =      -962.2329 E_bond   =         0.0000 E_angle  =         0.0000 
E_dihed  =         0.0000 E_impro  =         0.0000 E_vdwl   =       197.8196 
E_coul   =      4089.0368 E_long   =     -5249.0893 Press    =      -166.9138 
---------------- Step     2500 ----- CPU =     50.9939 (sec) ----------------
TotEng   =      -796.4501 KinEng   =       175.9111 Temp     =       296.5554 
PotEng   =      -972.3612 E_bond   =         0.0000 E_angle  =         0.0000 
E_dihed  =         0.0000 E_impro  =         0.0000 E_vdwl   =       191.0525 
E_coul   =      4084.8458 E_long   =     -5248.2594 Press    =      -473.2763 
---------------- Step     2600 ----- CPU =     53.4430 (sec) ----------------
TotEng   =      -820.3249 KinEng   =       181.5732 Temp     =       306.1008 
PotEng   =     -1001.8981 E_bond   =         0.0000 E_angle  =         0.0000 
E_dihed  =         0.0000 E_impro  =         0.0000 E_vdwl   =       208.5345 
E_coul   =      4040.6356 E_long   =     -5251.0681 Press    =       -11.5630 
---------------- Step     2700 ----- CPU =     55.9348 (sec) ----------------
TotEng   =      -852.8553 KinEng   =       165.8780 Temp     =       279.6414 
PotEng   =     -1018.7334 E_bond   =         0.0000 E_angle  =         0.0000 
E_dihed  =         0.0000 E_impro  =         0.0000 E_vdwl   =       209.1658 
E_coul   =      4019.4704 E_long   =     -5247.3696 Press    =      -157.0017 
---------------- Step     2800 ----- CPU =     58.2698 (sec) ----------------
TotEng   =      -831.3312 KinEng   =       170.6636 Temp     =       287.7091 
PotEng   =     -1001.9948 E_bond   =         0.0000 E_angle  =         0.0000 
E_dihed  =         0.0000 E_impro  =         0.0000 E_vdwl   =       205.5395 
E_coul   =      4041.6048 E_long   =     -5249.1392 Press    =      -370.7411 
---------------- Step     2900 ----- CPU =     60.6654 (sec) ----------------
TotEng   =      -812.8171 KinEng   =       179.9805 Temp     =       303.4158 
PotEng   =      -992.7976 E_bond   =         0.0000 E_angle  =         0.0000 
E_dihed  =         0.0000 E_impro  =         0.0000 E_vdwl   =       188.6027 
E_coul   =      4069.4479 E_long   =     -5250.8483 Press    =      -745.6678 
---------------- Step     3000 ----- CPU =     63.0012 (sec) ----------------
TotEng   =      -785.9088 KinEng   =       184.5445 Temp     =       311.1098 
PotEng   =      -970.4533 E_bond   =         0.0000 E_angle  =         0.0000 
E_dihed  =         0.0000 E_impro  =         0.0000 E_vdwl   =       175.5230 
E_coul   =      4103.9350 E_long   =     -5249.9113 Press    =      -876.2708 
---------------- Step     3100 ----- CPU =     65.3267 (sec) ----------------
TotEng   =      -790.1180 KinEng   =       170.4648 Temp     =       287.3739 
PotEng   =      -960.5828 E_bond   =         0.0000 E_angle  =         0.0000 
E_dihed  =         0.0000 E_impro  =         0.0000 E_vdwl   =       164.4682 
E_coul   =      4123.8590 E_long   =     -5248.9100 Press    =     -1098.1847 
---------------- Step     3200 ----- CPU =     67.8849 (sec) ----------------
TotEng   =      -815.1429 KinEng   =       160.6915 Temp     =       270.8979 
PotEng   =      -975.8344 E_bond   =         0.0000 E_angle  =         0.0000 
E_dihed  =         0.0000 E_impro  =         0.0000 E_vdwl   =       207.6386 
E_coul   =      4065.8266 E_long   =     -5249.2996 Press    =       -98.8072 
---------------- Step     3300 ----- CPU =     70.4639 (sec) ----------------
TotEng   =      -797.0654 KinEng   =       173.7463 Temp     =       292.9059 
PotEng   =      -970.8117 E_bond   =         0.0000 E_angle  =         0.0000 
E_dihed  =         0.0000 E_impro  =         0.0000 E_vdwl   =       193.8852 
E_coul   =      4081.4254 E_long   =     -5246.1224 Press    =      -551.4929 
---------------- Step     3400 ----- CPU =     72.9545 (sec) ----------------
TotEng   =      -782.2163 KinEng   =       171.0511 Temp     =       288.3624 
PotEng   =      -953.2674 E_bond   =         0.0000 E_angle  =         0.0000 
E_dihed  =         0.0000 E_impro  =         0.0000 E_vdwl   =       181.2376 
E_coul   =      4113.3725 E_long   =     -5247.8776 Press    =      -546.6999 
---------------- Step     3500 ----- CPU =     75.5397 (sec) ----------------
TotEng   =      -817.8577 KinEng   =       171.6100 Temp     =       289.3045 
PotEng   =      -989.4677 E_bond   =         0.0000 E_angle  =         0.0000 
E_dihed  =         0.0000 E_impro  =         0.0000 E_vdwl   =       193.5703 
E_coul   =      4065.8491 E_long   =     -5248.8871 Press    =      -663.7615 
---------------- Step     3600 ----- CPU =     78.0287 (sec) ----------------
TotEng   =      -798.2442 KinEng   =       174.6824 Temp     =       294.4841 
PotEng   =      -972.9267 E_bond   =         0.0000 E_angle  =         0.0000 
E_dihed  =         0.0000 E_impro  =         0.0000 E_vdwl   =       187.2409 
E_coul   =      4091.6053 E_long   =     -5251.7728 Press    =      -323.9064 
---------------- Step     3700 ----- CPU =     80.6315 (sec) ----------------
TotEng   =      -811.2318 KinEng   =       172.5571 Temp     =       290.9011 
PotEng   =      -983.7888 E_bond   =         0.0000 E_angle  =         0.0000 
E_dihed  =         0.0000 E_impro  =         0.0000 E_vdwl   =       185.3411 
E_coul   =      4080.7707 E_long   =     -5249.9007 Press    =      -431.7408 
---------------- Step     3800 ----- CPU =     83.2159 (sec) ----------------
TotEng   =      -816.4927 KinEng   =       177.8221 Temp     =       299.7771 
PotEng   =      -994.3148 E_bond   =         0.0000 E_angle  =         0.0000 
E_dihed  =         0.0000 E_impro  =         0.0000 E_vdwl   =       162.5281 
E_coul   =      4091.2915 E_long   =     -5248.1344 Press    =     -1216.1218 
---------------- Step     3900 ----- CPU =     85.7257 (sec) ----------------
TotEng   =      -786.8728 KinEng   =       210.7786 Temp     =       355.3359 
PotEng   =      -997.6513 E_bond   =         0.0000 E_angle  =         0.0000 
E_dihed  =         0.0000 E_impro  =         0.0000 E_vdwl   =       242.6050 
E_coul   =      4007.3724 E_long   =     -5247.6287 Press    =      1179.3490 
---------------- Step     4000 ----- CPU =     88.2432 (sec) ----------------
TotEng   =      -826.2366 KinEng   =       191.4522 Temp     =       322.7550 
PotEng   =     -1017.6888 E_bond   =         0.0000 E_angle  =         0.0000 
E_dihed  =         0.0000 E_impro  =         0.0000 E_vdwl   =       191.3300 
E_coul   =      4040.3645 E_long   =     -5249.3833 Press    =      -668.9582 
---------------- Step     4100 ----- CPU =     90.6898 (sec) ----------------
TotEng   =      -815.9454 KinEng   =       174.9275 Temp     =       294.8972 
PotEng   =      -990.8729 E_bond   =         0.0000 E_angle  =         0.0000 
E_dihed  =         0.0000 E_impro  =         0.0000 E_vdwl   =       176.2991 
E_coul   =      4082.4274 E_long   =     -5249.5994 Press    =      -945.1817 
---------------- Step     4200 ----- CPU =     93.2056 (sec) ----------------
TotEng   =      -815.3193 KinEng   =       186.1988 Temp     =       313.8988 
PotEng   =     -1001.5182 E_bond   =         0.0000 E_angle  =         0.0000 
E_dihed  =         0.0000 E_impro  =         0.0000 E_vdwl   =       215.9704 
E_coul   =      4031.0196 E_long   =     -5248.5082 Press    =       139.9399 
---------------- Step     4300 ----- CPU =     95.7537 (sec) ----------------
TotEng   =      -838.0265 KinEng   =       169.5062 Temp     =       285.7579 
PotEng   =     -1007.5327 E_bond   =         0.0000 E_angle  =         0.0000 
E_dihed  =         0.0000 E_impro  =         0.0000 E_vdwl   =       207.5716 
E_coul   =      4032.0068 E_long   =     -5247.1111 Press    =      -249.7115 
---------------- Step     4400 ----- CPU =     98.2423 (sec) ----------------
TotEng   =      -872.1385 KinEng   =       148.5240 Temp     =       250.3855 
PotEng   =     -1020.6625 E_bond   =         0.0000 E_angle  =         0.0000 
E_dihed  =         0.0000 E_impro  =         0.0000 E_vdwl   =       222.2117 
E_coul   =      4005.0760 E_long   =     -5247.9503 Press    =       184.4334 
---------------- Step     4500 ----- CPU =    100.6638 (sec) ----------------
TotEng   =      -845.7921 KinEng   =       172.6700 Temp     =       291.0915 
PotEng   =     -1018.4621 E_bond   =         0.0000 E_angle  =         0.0000 
E_dihed  =         0.0000 E_impro  =         0.0000 E_vdwl   =       222.2442 
E_coul   =      4006.7795 E_long   =     -5247.4858 Press    =       190.1769 
---------------- Step     4600 ----- CPU =    103.0333 (sec) ----------------
TotEng   =      -815.1796 KinEng   =       179.5225 Temp     =       302.6436 
PotEng   =      -994.7021 E_bond   =         0.0000 E_angle  =         0.0000 
E_dihed  =         0.0000 E_impro  =         0.0000 E_vdwl   =       196.4827 
E_coul   =      4059.4605 E_long   =     -5250.6453 Press    =      -304.4168 
---------------- Step     4700 ----- CPU =    105.3408 (sec) ----------------
TotEng   =      -820.8743 KinEng   =       173.5346 Temp     =       292.5491 
PotEng   =      -994.4089 E_bond   =         0.0000 E_angle  =         0.0000 
E_dihed  =         0.0000 E_impro  =         0.0000 E_vdwl   =       202.4345 
E_coul   =      4050.5971 E_long   =     -5247.4406 Press    =      -134.3242 
---------------- Step     4800 ----- CPU =    107.6129 (sec) ----------------
TotEng   =      -839.0773 KinEng   =       179.8110 Temp     =       303.1299 
PotEng   =     -1018.8883 E_bond   =         0.0000 E_angle  =         0.0000 
E_dihed  =         0.0000 E_impro  =         0.0000 E_vdwl   =       220.2014 
E_coul   =      4010.0938 E_long   =     -5249.1835 Press    =        49.5461 
---------------- Step     4900 ----- CPU =    109.9895 (sec) ----------------
TotEng   =      -819.5901 KinEng   =       169.5279 Temp     =       285.7944 
PotEng   =      -989.1180 E_bond   =         0.0000 E_angle  =         0.0000 
E_dihed  =         0.0000 E_impro  =         0.0000 E_vdwl   =       182.2026 
E_coul   =      4076.1699 E_long   =     -5247.4905 Press    =      -880.7653 
---------------- Step     5000 ----- CPU =    112.3496 (sec) ----------------
TotEng   =      -800.4306 KinEng   =       182.8183 Temp     =       308.1997 
PotEng   =      -983.2489 E_bond   =         0.0000 E_angle  =         0.0000 
E_dihed  =         0.0000 E_impro  =         0.0000 E_vdwl   =       217.3397 
E_coul   =      4049.4401 E_long   =     -5250.0287 Press    =       298.4745 
---------------- Step     5100 ----- CPU =    114.7963 (sec) ----------------
TotEng   =      -826.3303 KinEng   =       164.1240 Temp     =       276.6844 
PotEng   =      -990.4543 E_bond   =         0.0000 E_angle  =         0.0000 
E_dihed  =         0.0000 E_impro  =         0.0000 E_vdwl   =       197.3456 
E_coul   =      4062.8686 E_long   =     -5250.6684 Press    =      -404.7428 
---------------- Step     5200 ----- CPU =    117.2449 (sec) ----------------
TotEng   =      -813.8947 KinEng   =       184.2629 Temp     =       310.6350 
PotEng   =      -998.1576 E_bond   =         0.0000 E_angle  =         0.0000 
E_dihed  =         0.0000 E_impro  =         0.0000 E_vdwl   =       189.9367 
E_coul   =      4059.3757 E_long   =     -5247.4701 Press    =      -829.6342 
---------------- Step     5300 ----- CPU =    119.6100 (sec) ----------------
TotEng   =      -814.9825 KinEng   =       178.2897 Temp     =       300.5653 
PotEng   =      -993.2721 E_bond   =         0.0000 E_angle  =         0.0000 
E_dihed  =         0.0000 E_impro  =         0.0000 E_vdwl   =       188.6356 
E_coul   =      4066.7310 E_long   =     -5248.6387 Press    =      -844.8584 
---------------- Step     5400 ----- CPU =    121.9370 (sec) ----------------
TotEng   =      -832.1866 KinEng   =       192.3780 Temp     =       324.3158 
PotEng   =     -1024.5646 E_bond   =         0.0000 E_angle  =         0.0000 
E_dihed  =         0.0000 E_impro  =         0.0000 E_vdwl   =       216.6802 
E_coul   =      4007.5253 E_long   =     -5248.7701 Press    =      -313.7810 
---------------- Step     5500 ----- CPU =    124.2401 (sec) ----------------
TotEng   =      -818.9789 KinEng   =       172.8460 Temp     =       291.3883 
PotEng   =      -991.8249 E_bond   =         0.0000 E_angle  =         0.0000 
E_dihed  =         0.0000 E_impro  =         0.0000 E_vdwl   =       205.4454 
E_coul   =      4052.8916 E_long   =     -5250.1620 Press    =      -411.1097 
---------------- Step     5600 ----- CPU =    126.5872 (sec) ----------------
TotEng   =      -805.5362 KinEng   =       194.9915 Temp     =       328.7216 
PotEng   =     -1000.5276 E_bond   =         0.0000 E_angle  =         0.0000 
E_dihed  =         0.0000 E_impro  =         0.0000 E_vdwl   =       208.3308 
E_coul   =      4036.6144 E_long   =     -5245.4729 Press    =      -378.3172 
---------------- Step     5700 ----- CPU =    128.8959 (sec) ----------------
TotEng   =      -829.3384 KinEng   =       156.4423 Temp     =       263.7343 
PotEng   =      -985.7806 E_bond   =         0.0000 E_angle  =         0.0000 
E_dihed  =         0.0000 E_impro  =         0.0000 E_vdwl   =       213.5889 
E_coul   =      4048.2790 E_long   =     -5247.6486 Press    =        54.2297 
---------------- Step     5800 ----- CPU =    131.2595 (sec) ----------------
TotEng   =      -815.7645 KinEng   =       177.9596 Temp     =       300.0088 
PotEng   =      -993.7241 E_bond   =         0.0000 E_angle  =         0.0000 
E_dihed  =         0.0000 E_impro  =         0.0000 E_vdwl   =       217.3234 
E_coul   =      4033.8817 E_long   =     -5244.9292 Press    =       225.4384 
---------------- Step     5900 ----- CPU =    133.5568 (sec) ----------------
TotEng   =      -803.2938 KinEng   =       187.6977 Temp     =       316.4256 
PotEng   =      -990.9916 E_bond   =         0.0000 E_angle  =         0.0000 
E_dihed  =         0.0000 E_impro  =         0.0000 E_vdwl   =       182.0088 
E_coul   =      4075.4002 E_long   =     -5248.4006 Press    =      -751.8280 
---------------- Step     6000 ----- CPU =    136.0886 (sec) ----------------
TotEng   =      -829.7270 KinEng   =       172.3422 Temp     =       290.5389 
PotEng   =     -1002.0692 E_bond   =         0.0000 E_angle  =         0.0000 
E_dihed  =         0.0000 E_impro  =         0.0000 E_vdwl   =       229.8289 
E_coul   =      4016.9488 E_long   =     -5248.8468 Press    =       362.5800 
---------------- Step     6100 ----- CPU =    138.4183 (sec) ----------------
TotEng   =      -837.9330 KinEng   =       146.4378 Temp     =       246.8686 
PotEng   =      -984.3708 E_bond   =         0.0000 E_angle  =         0.0000 
E_dihed  =         0.0000 E_impro  =         0.0000 E_vdwl   =       194.6919 
E_coul   =      4068.0683 E_long   =     -5247.1310 Press    =      -579.8041 
---------------- Step     6200 ----- CPU =    140.7848 (sec) ----------------
TotEng   =      -793.1465 KinEng   =       180.3477 Temp     =       304.0348 
PotEng   =      -973.4943 E_bond   =         0.0000 E_angle  =         0.0000 
E_dihed  =         0.0000 E_impro  =         0.0000 E_vdwl   =       181.9684 
E_coul   =      4087.6290 E_long   =     -5243.0917 Press    =      -808.8725 
---------------- Step     6300 ----- CPU =    143.1622 (sec) ----------------
TotEng   =      -779.8411 KinEng   =       172.9708 Temp     =       291.5985 
PotEng   =      -952.8118 E_bond   =         0.0000 E_angle  =         0.0000 
E_dihed  =         0.0000 E_impro  =         0.0000 E_vdwl   =       209.9710 
E_coul   =      4086.5093 E_long   =     -5249.2921 Press    =       247.5868 
---------------- Step     6400 ----- CPU =    145.5112 (sec) ----------------
TotEng   =      -801.3364 KinEng   =       171.5204 Temp     =       289.1535 
PotEng   =      -972.8568 E_bond   =         0.0000 E_angle  =         0.0000 
E_dihed  =         0.0000 E_impro  =         0.0000 E_vdwl   =       181.3553 
E_coul   =      4096.0941 E_long   =     -5250.3062 Press    =      -678.2176 
---------------- Step     6500 ----- CPU =    147.8208 (sec) ----------------
TotEng   =      -770.4538 KinEng   =       186.7309 Temp     =       314.7958 
PotEng   =      -957.1847 E_bond   =         0.0000 E_angle  =         0.0000 
E_dihed  =         0.0000 E_impro  =         0.0000 E_vdwl   =       195.6973 
E_coul   =      4089.4856 E_long   =     -5242.3676 Press    =       -61.8171 
---------------- Step     6600 ----- CPU =    150.1491 (sec) ----------------
TotEng   =      -773.1411 KinEng   =       176.9886 Temp     =       298.3718 
PotEng   =      -950.1297 E_bond   =         0.0000 E_angle  =         0.0000 
E_dihed  =         0.0000 E_impro  =         0.0000 E_vdwl   =       168.6315 
E_coul   =      4130.7787 E_long   =     -5249.5399 Press    =      -970.7632 
---------------- Step     6700 ----- CPU =    152.4774 (sec) ----------------
TotEng   =      -813.8519 KinEng   =       183.1561 Temp     =       308.7693 
PotEng   =      -997.0080 E_bond   =         0.0000 E_angle  =         0.0000 
E_dihed  =         0.0000 E_impro  =         0.0000 E_vdwl   =       193.6112 
E_coul   =      4058.7600 E_long   =     -5249.3792 Press    =      -716.5247 
---------------- Step     6800 ----- CPU =    154.7676 (sec) ----------------
TotEng   =      -796.9765 KinEng   =       187.6235 Temp     =       316.3005 
PotEng   =      -984.6000 E_bond   =         0.0000 E_angle  =         0.0000 
E_dihed  =         0.0000 E_impro  =         0.0000 E_vdwl   =       185.7235 
E_coul   =      4076.8314 E_long   =     -5247.1549 Press    =      -676.4442 
---------------- Step     6900 ----- CPU =    157.0795 (sec) ----------------
TotEng   =      -817.8408 KinEng   =       169.2316 Temp     =       285.2949 
PotEng   =      -987.0724 E_bond   =         0.0000 E_angle  =         0.0000 
E_dihed  =         0.0000 E_impro  =         0.0000 E_vdwl   =       181.8337 
E_coul   =      4077.6439 E_long   =     -5246.5499 Press    =      -885.8453 
---------------- Step     7000 ----- CPU =    159.4293 (sec) ----------------
TotEng   =      -805.9648 KinEng   =       168.8375 Temp     =       284.6306 
PotEng   =      -974.8023 E_bond   =         0.0000 E_angle  =         0.0000 
E_dihed  =         0.0000 E_impro  =         0.0000 E_vdwl   =       199.5620 
E_coul   =      4073.2230 E_long   =     -5247.5873 Press    =      -262.4031 
---------------- Step     7100 ----- CPU =    161.7701 (sec) ----------------
TotEng   =      -793.1321 KinEng   =       176.4404 Temp     =       297.4478 
PotEng   =      -969.5725 E_bond   =         0.0000 E_angle  =         0.0000 
E_dihed  =         0.0000 E_impro  =         0.0000 E_vdwl   =       176.0829 
E_coul   =      4104.2473 E_long   =     -5249.9028 Press    =      -692.8245 
---------------- Step     7200 ----- CPU =    164.0806 (sec) ----------------
TotEng   =      -826.2653 KinEng   =       179.4312 Temp     =       302.4897 
PotEng   =     -1005.6966 E_bond   =         0.0000 E_angle  =         0.0000 
E_dihed  =         0.0000 E_impro  =         0.0000 E_vdwl   =       202.7193 
E_coul   =      4040.8330 E_long   =     -5249.2489 Press    =      -392.9522 
---------------- Step     7300 ----- CPU =    166.4257 (sec) ----------------
TotEng   =      -824.9138 KinEng   =       179.3249 Temp     =       302.3104 
PotEng   =     -1004.2387 E_bond   =         0.0000 E_angle  =         0.0000 
E_dihed  =         0.0000 E_impro  =         0.0000 E_vdwl   =       227.0587 
E_coul   =      4018.4200 E_long   =     -5249.7174 Press    =       241.1618 
---------------- Step     7400 ----- CPU =    168.7456 (sec) ----------------
TotEng   =      -786.6549 KinEng   =       174.7743 Temp     =       294.6390 
PotEng   =      -961.4292 E_bond   =         0.0000 E_angle  =         0.0000 
E_dihed  =         0.0000 E_impro  =         0.0000 E_vdwl   =       188.8756 
E_coul   =      4098.3736 E_long   =     -5248.6785 Press    =      -440.9832 
---------------- Step     7500 ----- CPU =    171.0745 (sec) ----------------
TotEng   =      -805.2495 KinEng   =       167.5451 Temp     =       282.4517 
PotEng   =      -972.7946 E_bond   =         0.0000 E_angle  =         0.0000 
E_dihed  =         0.0000 E_impro  =         0.0000 E_vdwl   =       203.0035 
E_coul   =      4071.2021 E_long   =     -5247.0002 Press    =       -30.9192 
---------------- Step     7600 ----- CPU =    173.3900 (sec) ----------------
TotEng   =      -831.5559 KinEng   =       169.5412 Temp     =       285.8169 
PotEng   =     -1001.0971 E_bond   =         0.0000 E_angle  =         0.0000 
E_dihed  =         0.0000 E_impro  =         0.0000 E_vdwl   =       220.7175 
E_coul   =      4030.5894 E_long   =     -5252.4039 Press    =       212.2471 
---------------- Step     7700 ----- CPU =    175.7460 (sec) ----------------
TotEng   =      -799.5683 KinEng   =       193.3057 Temp     =       325.8797 
PotEng   =      -992.8740 E_bond   =         0.0000 E_angle  =         0.0000 
E_dihed  =         0.0000 E_impro  =         0.0000 E_vdwl   =       181.8943 
E_coul   =      4070.9948 E_long   =     -5245.7631 Press    =      -685.0626 
---------------- Step     7800 ----- CPU =    178.1386 (sec) ----------------
TotEng   =      -815.2581 KinEng   =       174.9799 Temp     =       294.9855 
PotEng   =      -990.2379 E_bond   =         0.0000 E_angle  =         0.0000 
E_dihed  =         0.0000 E_impro  =         0.0000 E_vdwl   =       209.8267 
E_coul   =      4050.6545 E_long   =     -5250.7191 Press    =       -60.2215 
---------------- Step     7900 ----- CPU =    180.5839 (sec) ----------------
TotEng   =      -844.4790 KinEng   =       165.8793 Temp     =       279.6435 
PotEng   =     -1010.3583 E_bond   =         0.0000 E_angle  =         0.0000 
E_dihed  =         0.0000 E_impro  =         0.0000 E_vdwl   =       209.2767 
E_coul   =      4030.9506 E_long   =     -5250.5856 Press    =      -226.3264 
---------------- Step     8000 ----- CPU =    182.8927 (sec) ----------------
TotEng   =      -825.5677 KinEng   =       191.9685 Temp     =       323.6254 
PotEng   =     -1017.5362 E_bond   =         0.0000 E_angle  =         0.0000 
E_dihed  =         0.0000 E_impro  =         0.0000 E_vdwl   =       213.9258 
E_coul   =      4018.0476 E_long   =     -5249.5096 Press    =       -11.9398 
---------------- Step     8100 ----- CPU =    185.2356 (sec) ----------------
TotEng   =      -836.5514 KinEng   =       179.5010 Temp     =       302.6073 
PotEng   =     -1016.0524 E_bond   =         0.0000 E_angle  =         0.0000 
E_dihed  =         0.0000 E_impro  =         0.0000 E_vdwl   =       187.4296 
E_coul   =      4045.2801 E_long   =     -5248.7621 Press    =      -941.3079 
---------------- Step     8200 ----- CPU =    187.6222 (sec) ----------------
TotEng   =      -821.8193 KinEng   =       183.3959 Temp     =       309.1735 
PotEng   =     -1005.2152 E_bond   =         0.0000 E_angle  =         0.0000 
E_dihed  =         0.0000 E_impro  =         0.0000 E_vdwl   =       210.3627 
E_coul   =      4035.3451 E_long   =     -5250.9229 Press    =      -230.9480 
---------------- Step     8300 ----- CPU =    190.0108 (sec) ----------------
TotEng   =      -805.3277 KinEng   =       189.7872 Temp     =       319.9481 
PotEng   =      -995.1149 E_bond   =         0.0000 E_angle  =         0.0000 
E_dihed  =         0.0000 E_impro  =         0.0000 E_vdwl   =       185.0458 
E_coul   =      4069.3510 E_long   =     -5249.5117 Press    =      -752.0441 
---------------- Step     8400 ----- CPU =    192.3580 (sec) ----------------
TotEng   =      -812.8341 KinEng   =       181.1944 Temp     =       305.4622 
PotEng   =      -994.0286 E_bond   =         0.0000 E_angle  =         0.0000 
E_dihed  =         0.0000 E_impro  =         0.0000 E_vdwl   =       201.1923 
E_coul   =      4055.3093 E_long   =     -5250.5302 Press    =      -187.7956 
---------------- Step     8500 ----- CPU =    194.7155 (sec) ----------------
TotEng   =      -839.6027 KinEng   =       164.4827 Temp     =       277.2891 
PotEng   =     -1004.0854 E_bond   =         0.0000 E_angle  =         0.0000 
E_dihed  =         0.0000 E_impro  =         0.0000 E_vdwl   =       194.7049 
E_coul   =      4047.5980 E_long   =     -5246.3883 Press    =      -523.9203 
---------------- Step     8600 ----- CPU =    197.1458 (sec) ----------------
TotEng   =      -805.7493 KinEng   =       179.8534 Temp     =       303.2014 
PotEng   =      -985.6027 E_bond   =         0.0000 E_angle  =         0.0000 
E_dihed  =         0.0000 E_impro  =         0.0000 E_vdwl   =       185.6975 
E_coul   =      4079.4292 E_long   =     -5250.7294 Press    =      -666.1182 
---------------- Step     8700 ----- CPU =    199.5991 (sec) ----------------
TotEng   =      -808.4027 KinEng   =       172.3810 Temp     =       290.6043 
PotEng   =      -980.7837 E_bond   =         0.0000 E_angle  =         0.0000 
E_dihed  =         0.0000 E_impro  =         0.0000 E_vdwl   =       214.5062 
E_coul   =      4052.8413 E_long   =     -5248.1313 Press    =       243.4728 
---------------- Step     8800 ----- CPU =    202.0059 (sec) ----------------
TotEng   =      -816.6105 KinEng   =       177.1769 Temp     =       298.6893 
PotEng   =      -993.7873 E_bond   =         0.0000 E_angle  =         0.0000 
E_dihed  =         0.0000 E_impro  =         0.0000 E_vdwl   =       219.3804 
E_coul   =      4036.3649 E_long   =     -5249.5326 Press    =       192.8993 
---------------- Step     8900 ----- CPU =    204.3769 (sec) ----------------
TotEng   =      -845.9804 KinEng   =       166.1534 Temp     =       280.1056 
PotEng   =     -1012.1338 E_bond   =         0.0000 E_angle  =         0.0000 
E_dihed  =         0.0000 E_impro  =         0.0000 E_vdwl   =       186.4093 
E_coul   =      4049.1036 E_long   =     -5247.6467 Press    =      -955.1264 
---------------- Step     9000 ----- CPU =    206.7851 (sec) ----------------
TotEng   =      -824.7945 KinEng   =       187.7585 Temp     =       316.5281 
PotEng   =     -1012.5530 E_bond   =         0.0000 E_angle  =         0.0000 
E_dihed  =         0.0000 E_impro  =         0.0000 E_vdwl   =       227.5230 
E_coul   =      4009.0171 E_long   =     -5249.0931 Press    =       244.3146 
---------------- Step     9100 ----- CPU =    209.1497 (sec) ----------------
TotEng   =      -816.3475 KinEng   =       175.7128 Temp     =       296.2211 
PotEng   =      -992.0603 E_bond   =         0.0000 E_angle  =         0.0000 
E_dihed  =         0.0000 E_impro  =         0.0000 E_vdwl   =       201.0926 
E_coul   =      4056.8043 E_long   =     -5249.9572 Press    =      -246.8333 
---------------- Step     9200 ----- CPU =    211.5011 (sec) ----------------
TotEng   =      -789.7555 KinEng   =       188.5714 Temp     =       317.8985 
PotEng   =      -978.3269 E_bond   =         0.0000 E_angle  =         0.0000 
E_dihed  =         0.0000 E_impro  =         0.0000 E_vdwl   =       196.8244 
E_coul   =      4074.7472 E_long   =     -5249.8985 Press    =      -297.8369 
---------------- Step     9300 ----- CPU =    213.8428 (sec) ----------------
TotEng   =      -764.2500 KinEng   =       186.2939 Temp     =       314.0590 
PotEng   =      -950.5439 E_bond   =         0.0000 E_angle  =         0.0000 
E_dihed  =         0.0000 E_impro  =         0.0000 E_vdwl   =       182.8265 
E_coul   =      4117.4282 E_long   =     -5250.7987 Press    =      -258.7887 
---------------- Step     9400 ----- CPU =    216.2209 (sec) ----------------
TotEng   =      -801.4365 KinEng   =       165.1931 Temp     =       278.4867 
PotEng   =      -966.6295 E_bond   =         0.0000 E_angle  =         0.0000 
E_dihed  =         0.0000 E_impro  =         0.0000 E_vdwl   =       173.9480 
E_coul   =      4109.0169 E_long   =     -5249.5944 Press    =      -928.5716 
---------------- Step     9500 ----- CPU =    218.5614 (sec) ----------------
TotEng   =      -793.2180 KinEng   =       189.8764 Temp     =       320.0984 
PotEng   =      -983.0943 E_bond   =         0.0000 E_angle  =         0.0000 
E_dihed  =         0.0000 E_impro  =         0.0000 E_vdwl   =       210.7419 
E_coul   =      4053.8319 E_long   =     -5247.6682 Press    =      -105.2849 
---------------- Step     9600 ----- CPU =    220.9125 (sec) ----------------
TotEng   =      -811.7570 KinEng   =       167.1467 Temp     =       281.7801 
PotEng   =      -978.9036 E_bond   =         0.0000 E_angle  =         0.0000 
E_dihed  =         0.0000 E_impro  =         0.0000 E_vdwl   =       196.0008 
E_coul   =      4073.1239 E_long   =     -5248.0283 Press    =      -442.2162 
---------------- Step     9700 ----- CPU =    223.3058 (sec) ----------------
TotEng   =      -811.9597 KinEng   =       179.5739 Temp     =       302.7302 
PotEng   =      -991.5336 E_bond   =         0.0000 E_angle  =         0.0000 
E_dihed  =         0.0000 E_impro  =         0.0000 E_vdwl   =       178.5673 
E_coul   =      4079.8502 E_long   =     -5249.9511 Press    =      -854.2364 
---------------- Step     9800 ----- CPU =    225.6388 (sec) ----------------
TotEng   =      -789.9498 KinEng   =       178.0627 Temp     =       300.1826 
PotEng   =      -968.0125 E_bond   =         0.0000 E_angle  =         0.0000 
E_dihed  =         0.0000 E_impro  =         0.0000 E_vdwl   =       173.9167 
E_coul   =      4109.3681 E_long   =     -5251.2973 Press    =      -832.9229 
---------------- Step     9900 ----- CPU =    227.9663 (sec) ----------------
TotEng   =      -818.2852 KinEng   =       178.8145 Temp     =       301.4501 
PotEng   =      -997.0997 E_bond   =         0.0000 E_angle  =         0.0000 
E_dihed  =         0.0000 E_impro  =         0.0000 E_vdwl   =       229.0724 
E_coul   =      4024.6944 E_long   =     -5250.8665 Press    =       436.0640 
---------------- Step    10000 ----- CPU =    230.3185 (sec) ----------------
TotEng   =      -814.1206 KinEng   =       164.3378 Temp     =       277.0448 
PotEng   =      -978.4583 E_bond   =         0.0000 E_angle  =         0.0000 
E_dihed  =         0.0000 E_impro  =         0.0000 E_vdwl   =       199.0100 
E_coul   =      4072.4158 E_long   =     -5249.8841 Press    =      -245.4060 
---------------- Step    10100 ----- CPU =    232.6721 (sec) ----------------
TotEng   =      -796.2236 KinEng   =       182.9582 Temp     =       308.4355 
PotEng   =      -979.1818 E_bond   =         0.0000 E_angle  =         0.0000 
E_dihed  =         0.0000 E_impro  =         0.0000 E_vdwl   =       204.8450 
E_coul   =      4065.2661 E_long   =     -5249.2929 Press    =       -47.3524 
---------------- Step    10200 ----- CPU =    235.0335 (sec) ----------------
TotEng   =      -824.2933 KinEng   =       168.5131 Temp     =       284.0837 
PotEng   =      -992.8064 E_bond   =         0.0000 E_angle  =         0.0000 
E_dihed  =         0.0000 E_impro  =         0.0000 E_vdwl   =       179.6427 
E_coul   =      4075.6224 E_long   =     -5248.0716 Press    =      -956.2413 
---------------- Step    10300 ----- CPU =    237.3781 (sec) ----------------
TotEng   =      -826.3466 KinEng   =       174.1999 Temp     =       293.6707 
PotEng   =     -1000.5465 E_bond   =         0.0000 E_angle  =         0.0000 
E_dihed  =         0.0000 E_impro  =         0.0000 E_vdwl   =       206.1542 
E_coul   =      4044.0908 E_long   =     -5250.7915 Press    =      -278.5294 
---------------- Step    10400 ----- CPU =    239.7122 (sec) ----------------
TotEng   =      -791.2973 KinEng   =       190.0873 Temp     =       320.4540 
PotEng   =      -981.3846 E_bond   =         0.0000 E_angle  =         0.0000 
E_dihed  =         0.0000 E_impro  =         0.0000 E_vdwl   =       177.1723 
E_coul   =      4092.5330 E_long   =     -5251.0899 Press    =      -832.0109 
---------------- Step    10500 ----- CPU =    242.0341 (sec) ----------------
TotEng   =      -800.8543 KinEng   =       175.4771 Temp     =       295.8238 
PotEng   =      -976.3314 E_bond   =         0.0000 E_angle  =         0.0000 
E_dihed  =         0.0000 E_impro  =         0.0000 E_vdwl   =       168.2808 
E_coul   =      4105.6789 E_long   =     -5250.2912 Press    =     -1098.9745 
---------------- Step    10600 ----- CPU =    244.3859 (sec) ----------------
TotEng   =      -826.1036 KinEng   =       168.2908 Temp     =       283.7089 
PotEng   =      -994.3943 E_bond   =         0.0000 E_angle  =         0.0000 
E_dihed  =         0.0000 E_impro  =         0.0000 E_vdwl   =       194.3272 
E_coul   =      4061.7723 E_long   =     -5250.4938 Press    =      -642.4581 
---------------- Step    10700 ----- CPU =    246.6995 (sec) ----------------
TotEng   =      -797.4524 KinEng   =       181.0081 Temp     =       305.1480 
PotEng   =      -978.4604 E_bond   =         0.0000 E_angle  =         0.0000 
E_dihed  =         0.0000 E_impro  =         0.0000 E_vdwl   =       233.4147 
E_coul   =      4036.2589 E_long   =     -5248.1341 Press    =       836.8119 
---------------- Step    10800 ----- CPU =    249.0283 (sec) ----------------
TotEng   =      -795.8101 KinEng   =       174.2664 Temp     =       293.7827 
PotEng   =      -970.0765 E_bond   =         0.0000 E_angle  =         0.0000 
E_dihed  =         0.0000 E_impro  =         0.0000 E_vdwl   =       187.5382 
E_coul   =      4090.2975 E_long   =     -5247.9123 Press    =      -672.3047 
---------------- Step    10900 ----- CPU =    251.3669 (sec) ----------------
TotEng   =      -807.5987 KinEng   =       175.3550 Temp     =       295.6180 
PotEng   =      -982.9538 E_bond   =         0.0000 E_angle  =         0.0000 
E_dihed  =         0.0000 E_impro  =         0.0000 E_vdwl   =       201.0892 
E_coul   =      4060.9904 E_long   =     -5245.0333 Press    =      -311.4754 
---------------- Step    11000 ----- CPU =    253.7285 (sec) ----------------
TotEng   =      -770.4599 KinEng   =       182.6528 Temp     =       307.9208 
PotEng   =      -953.1127 E_bond   =         0.0000 E_angle  =         0.0000 
E_dihed  =         0.0000 E_impro  =         0.0000 E_vdwl   =       187.9012 
E_coul   =      4108.6618 E_long   =     -5249.6757 Press    =      -430.1021 
---------------- Step    11100 ----- CPU =    256.0276 (sec) ----------------
TotEng   =      -799.9087 KinEng   =       165.6525 Temp     =       279.2612 
PotEng   =      -965.5612 E_bond   =         0.0000 E_angle  =         0.0000 
E_dihed  =         0.0000 E_impro  =         0.0000 E_vdwl   =       192.4049 
E_coul   =      4091.1533 E_long   =     -5249.1194 Press    =      -198.9178 
---------------- Step    11200 ----- CPU =    258.3370 (sec) ----------------
TotEng   =      -832.3946 KinEng   =       172.2177 Temp     =       290.3290 
PotEng   =     -1004.6122 E_bond   =         0.0000 E_angle  =         0.0000 
E_dihed  =         0.0000 E_impro  =         0.0000 E_vdwl   =       183.7380 
E_coul   =      4062.6285 E_long   =     -5250.9787 Press    =      -595.9955 
---------------- Step    11300 ----- CPU =    260.7011 (sec) ----------------
TotEng   =      -824.8096 KinEng   =       172.4350 Temp     =       290.6952 
PotEng   =      -997.2446 E_bond   =         0.0000 E_angle  =         0.0000 
E_dihed  =         0.0000 E_impro  =         0.0000 E_vdwl   =       202.8328 
E_coul   =      4049.3118 E_long   =     -5249.3891 Press    =        18.2752 
---------------- Step    11400 ----- CPU =    263.0809 (sec) ----------------
TotEng   =      -782.4019 KinEng   =       175.5623 Temp     =       295.9675 
PotEng   =      -957.9643 E_bond   =         0.0000 E_angle  =         0.0000 
E_dihed  =         0.0000 E_impro  =         0.0000 E_vdwl   =       164.8569 
E_coul   =      4128.3547 E_long   =     -5251.1759 Press    =      -985.5421 
---------------- Step    11500 ----- CPU =    265.4164 (sec) ----------------
TotEng   =      -782.1105 KinEng   =       189.3469 Temp     =       319.2058 
PotEng   =      -971.4573 E_bond   =         0.0000 E_angle  =         0.0000 
E_dihed  =         0.0000 E_impro  =         0.0000 E_vdwl   =       188.7372 
E_coul   =      4089.7784 E_long   =     -5249.9729 Press    =      -458.1370 
---------------- Step    11600 ----- CPU =    267.7334 (sec) ----------------
TotEng   =      -810.6507 KinEng   =       172.2964 Temp     =       290.4616 
PotEng   =      -982.9471 E_bond   =         0.0000 E_angle  =         0.0000 
E_dihed  =         0.0000 E_impro  =         0.0000 E_vdwl   =       167.5837 
E_coul   =      4097.6702 E_long   =     -5248.2010 Press    =     -1195.2043 
---------------- Step    11700 ----- CPU =    270.0542 (sec) ----------------
TotEng   =      -823.8989 KinEng   =       182.7359 Temp     =       308.0609 
PotEng   =     -1006.6348 E_bond   =         0.0000 E_angle  =         0.0000 
E_dihed  =         0.0000 E_impro  =         0.0000 E_vdwl   =       175.4012 
E_coul   =      4069.5857 E_long   =     -5251.6216 Press    =     -1030.6195 
---------------- Step    11800 ----- CPU =    272.3885 (sec) ----------------
TotEng   =      -810.6239 KinEng   =       175.5944 Temp     =       296.0216 
PotEng   =      -986.2184 E_bond   =         0.0000 E_angle  =         0.0000 
E_dihed  =         0.0000 E_impro  =         0.0000 E_vdwl   =       186.5471 
E_coul   =      4076.5491 E_long   =     -5249.3146 Press    =      -334.5603 
---------------- Step    11900 ----- CPU =    274.7675 (sec) ----------------
TotEng   =      -815.7870 KinEng   =       178.7155 Temp     =       301.2831 
PotEng   =      -994.5025 E_bond   =         0.0000 E_angle  =         0.0000 
E_dihed  =         0.0000 E_impro  =         0.0000 E_vdwl   =       180.3845 
E_coul   =      4074.2540 E_long   =     -5249.1410 Press    =      -760.7352 
---------------- Step    12000 ----- CPU =    277.1324 (sec) ----------------
TotEng   =      -825.9151 KinEng   =       168.6073 Temp     =       284.2425 
PotEng   =      -994.5224 E_bond   =         0.0000 E_angle  =         0.0000 
E_dihed  =         0.0000 E_impro  =         0.0000 E_vdwl   =       194.7433 
E_coul   =      4062.7867 E_long   =     -5252.0525 Press    =      -392.4074 
---------------- Step    12100 ----- CPU =    279.4708 (sec) ----------------
TotEng   =      -798.0128 KinEng   =       184.6164 Temp     =       311.2311 
PotEng   =      -982.6293 E_bond   =         0.0000 E_angle  =         0.0000 
E_dihed  =         0.0000 E_impro  =         0.0000 E_vdwl   =       179.2073 
E_coul   =      4088.2736 E_long   =     -5250.1101 Press    =      -597.8521 
---------------- Step    12200 ----- CPU =    281.8238 (sec) ----------------
TotEng   =      -825.1314 KinEng   =       180.9927 Temp     =       305.1221 
PotEng   =     -1006.1242 E_bond   =         0.0000 E_angle  =         0.0000 
E_dihed  =         0.0000 E_impro  =         0.0000 E_vdwl   =       194.1441 
E_coul   =      4047.5427 E_long   =     -5247.8110 Press    =      -664.0504 
---------------- Step    12300 ----- CPU =    284.1625 (sec) ----------------
TotEng   =      -822.4477 KinEng   =       181.2923 Temp     =       305.6271 
PotEng   =     -1003.7399 E_bond   =         0.0000 E_angle  =         0.0000 
E_dihed  =         0.0000 E_impro  =         0.0000 E_vdwl   =       193.5893 
E_coul   =      4051.7814 E_long   =     -5249.1106 Press    =      -641.9452 
---------------- Step    12400 ----- CPU =    286.6001 (sec) ----------------
TotEng   =      -821.5395 KinEng   =       177.2343 Temp     =       298.7862 
PotEng   =      -998.7738 E_bond   =         0.0000 E_angle  =         0.0000 
E_dihed  =         0.0000 E_impro  =         0.0000 E_vdwl   =       173.4702 
E_coul   =      4074.8595 E_long   =     -5247.1036 Press    =     -1296.7671 
---------------- Step    12500 ----- CPU =    288.9302 (sec) ----------------
TotEng   =      -820.4410 KinEng   =       187.1905 Temp     =       315.5705 
PotEng   =     -1007.6315 E_bond   =         0.0000 E_angle  =         0.0000 
E_dihed  =         0.0000 E_impro  =         0.0000 E_vdwl   =       247.6177 
E_coul   =      3993.4061 E_long   =     -5248.6554 Press    =       877.3158 
---------------- Step    12600 ----- CPU =    291.3586 (sec) ----------------
TotEng   =      -842.9542 KinEng   =       173.7360 Temp     =       292.8885 
PotEng   =     -1016.6902 E_bond   =         0.0000 E_angle  =         0.0000 
E_dihed  =         0.0000 E_impro  =         0.0000 E_vdwl   =       181.1015 
E_coul   =      4051.0994 E_long   =     -5248.8911 Press    =     -1184.3418 
---------------- Step    12700 ----- CPU =    293.6942 (sec) ----------------
TotEng   =      -804.5693 KinEng   =       184.5431 Temp     =       311.1075 
PotEng   =      -989.1124 E_bond   =         0.0000 E_angle  =         0.0000 
E_dihed  =         0.0000 E_impro  =         0.0000 E_vdwl   =       192.5467 
E_coul   =      4066.3688 E_long   =     -5248.0279 Press    =      -599.2954 
---------------- Step    12800 ----- CPU =    296.1988 (sec) ----------------
TotEng   =      -805.1221 KinEng   =       186.3428 Temp     =       314.1415 
PotEng   =      -991.4649 E_bond   =         0.0000 E_angle  =         0.0000 
E_dihed  =         0.0000 E_impro  =         0.0000 E_vdwl   =       217.3525 
E_coul   =      4041.2189 E_long   =     -5250.0363 Press    =       110.4927 
---------------- Step    12900 ----- CPU =    298.6507 (sec) ----------------
TotEng   =      -836.2297 KinEng   =       164.0605 Temp     =       276.5773 
PotEng   =     -1000.2902 E_bond   =         0.0000 E_angle  =         0.0000 
E_dihed  =         0.0000 E_impro  =         0.0000 E_vdwl   =       191.7734 
E_coul   =      4059.1124 E_long   =     -5251.1760 Press    =      -844.5926 
---------------- Step    13000 ----- CPU =    301.0404 (sec) ----------------
TotEng   =      -792.9453 KinEng   =       178.9652 Temp     =       301.7041 
PotEng   =      -971.9105 E_bond   =         0.0000 E_angle  =         0.0000 
E_dihed  =         0.0000 E_impro  =         0.0000 E_vdwl   =       179.6244 
E_coul   =      4098.8595 E_long   =     -5250.3944 Press    =      -894.8766 
---------------- Step    13100 ----- CPU =    303.4806 (sec) ----------------
TotEng   =      -798.4890 KinEng   =       185.2140 Temp     =       312.2385 
PotEng   =      -983.7031 E_bond   =         0.0000 E_angle  =         0.0000 
E_dihed  =         0.0000 E_impro  =         0.0000 E_vdwl   =       178.7087 
E_coul   =      4085.5345 E_long   =     -5247.9462 Press    =      -949.6793 
---------------- Step    13200 ----- CPU =    305.8319 (sec) ----------------
TotEng   =      -828.7083 KinEng   =       164.4374 Temp     =       277.2128 
PotEng   =      -993.1457 E_bond   =         0.0000 E_angle  =         0.0000 
E_dihed  =         0.0000 E_impro  =         0.0000 E_vdwl   =       179.3087 
E_coul   =      4079.0311 E_long   =     -5251.4855 Press    =     -1184.8050 
---------------- Step    13300 ----- CPU =    308.1750 (sec) ----------------
TotEng   =      -814.3255 KinEng   =       167.9889 Temp     =       283.1999 
PotEng   =      -982.3144 E_bond   =         0.0000 E_angle  =         0.0000 
E_dihed  =         0.0000 E_impro  =         0.0000 E_vdwl   =       200.8745 
E_coul   =      4064.9089 E_long   =     -5248.0979 Press    =      -247.9064 
---------------- Step    13400 ----- CPU =    310.5806 (sec) ----------------
TotEng   =      -832.2352 KinEng   =       160.8976 Temp     =       271.2453 
PotEng   =      -993.1329 E_bond   =         0.0000 E_angle  =         0.0000 
E_dihed  =         0.0000 E_impro  =         0.0000 E_vdwl   =       207.4886 
E_coul   =      4048.2546 E_long   =     -5248.8760 Press    =      -223.3125 
---------------- Step    13500 ----- CPU =    312.9622 (sec) ----------------
TotEng   =      -840.9930 KinEng   =       175.8536 Temp     =       296.4586 
PotEng   =     -1016.8466 E_bond   =         0.0000 E_angle  =         0.0000 
E_dihed  =         0.0000 E_impro  =         0.0000 E_vdwl   =       185.5473 
E_coul   =      4047.6976 E_long   =     -5250.0916 Press    =     -1164.9639 
---------------- Step    13600 ----- CPU =    315.3714 (sec) ----------------
TotEng   =      -806.6799 KinEng   =       191.2109 Temp     =       322.3481 
PotEng   =      -997.8908 E_bond   =         0.0000 E_angle  =         0.0000 
E_dihed  =         0.0000 E_impro  =         0.0000 E_vdwl   =       228.3905 
E_coul   =      4026.3814 E_long   =     -5252.6627 Press    =       406.9662 
---------------- Step    13700 ----- CPU =    317.7503 (sec) ----------------
TotEng   =      -815.4150 KinEng   =       176.1137 Temp     =       296.8970 
PotEng   =      -991.5287 E_bond   =         0.0000 E_angle  =         0.0000 
E_dihed  =         0.0000 E_impro  =         0.0000 E_vdwl   =       188.6072 
E_coul   =      4070.7633 E_long   =     -5250.8992 Press    =      -633.8454 
---------------- Step    13800 ----- CPU =    320.0982 (sec) ----------------
TotEng   =      -784.1808 KinEng   =       173.6708 Temp     =       292.7787 
PotEng   =      -957.8517 E_bond   =         0.0000 E_angle  =         0.0000 
E_dihed  =         0.0000 E_impro  =         0.0000 E_vdwl   =       179.5426 
E_coul   =      4112.3782 E_long   =     -5249.7725 Press    =      -550.2509 
---------------- Step    13900 ----- CPU =    322.4249 (sec) ----------------
TotEng   =      -780.5615 KinEng   =       180.3868 Temp     =       304.1006 
PotEng   =      -960.9482 E_bond   =         0.0000 E_angle  =         0.0000 
E_dihed  =         0.0000 E_impro  =         0.0000 E_vdwl   =       186.4598 
E_coul   =      4097.6877 E_long   =     -5245.0958 Press    =      -365.9408 
---------------- Step    14000 ----- CPU =    324.8326 (sec) ----------------
TotEng   =      -800.3204 KinEng   =       168.8984 Temp     =       284.7332 
PotEng   =      -969.2188 E_bond   =         0.0000 E_angle  =         0.0000 
E_dihed  =         0.0000 E_impro  =         0.0000 E_vdwl   =       200.5744 
E_coul   =      4079.3776 E_long   =     -5249.1708 Press    =         5.8896 
---------------- Step    14100 ----- CPU =    327.2095 (sec) ----------------
TotEng   =      -774.9118 KinEng   =       211.2976 Temp     =       356.2109 
PotEng   =      -986.2094 E_bond   =         0.0000 E_angle  =         0.0000 
E_dihed  =         0.0000 E_impro  =         0.0000 E_vdwl   =       189.4892 
E_coul   =      4074.1424 E_long   =     -5249.8410 Press    =      -597.4278 
---------------- Step    14200 ----- CPU =    329.5388 (sec) ----------------
TotEng   =      -775.3822 KinEng   =       181.1541 Temp     =       305.3942 
PotEng   =      -956.5363 E_bond   =         0.0000 E_angle  =         0.0000 
E_dihed  =         0.0000 E_impro  =         0.0000 E_vdwl   =       182.9359 
E_coul   =      4108.4803 E_long   =     -5247.9525 Press    =      -723.9179 
---------------- Step    14300 ----- CPU =    331.9165 (sec) ----------------
TotEng   =      -800.1692 KinEng   =       172.8963 Temp     =       291.4729 
PotEng   =      -973.0654 E_bond   =         0.0000 E_angle  =         0.0000 
E_dihed  =         0.0000 E_impro  =         0.0000 E_vdwl   =       184.5379 
E_coul   =      4090.5204 E_long   =     -5248.1238 Press    =      -888.7409 
---------------- Step    14400 ----- CPU =    334.2525 (sec) ----------------
TotEng   =      -782.6148 KinEng   =       187.1028 Temp     =       315.4227 
PotEng   =      -969.7176 E_bond   =         0.0000 E_angle  =         0.0000 
E_dihed  =         0.0000 E_impro  =         0.0000 E_vdwl   =       203.1434 
E_coul   =      4076.8666 E_long   =     -5249.7276 Press    =      -228.9013 
---------------- Step    14500 ----- CPU =    336.5942 (sec) ----------------
TotEng   =      -809.3204 KinEng   =       171.2768 Temp     =       288.7429 
PotEng   =      -980.5973 E_bond   =         0.0000 E_angle  =         0.0000 
E_dihed  =         0.0000 E_impro  =         0.0000 E_vdwl   =       159.1326 
E_coul   =      4111.4410 E_long   =     -5251.1708 Press    =     -1567.4489 
---------------- Step    14600 ----- CPU =    338.9419 (sec) ----------------
TotEng   =      -805.6452 KinEng   =       172.6070 Temp     =       290.9853 
PotEng   =      -978.2522 E_bond   =         0.0000 E_angle  =         0.0000 
E_dihed  =         0.0000 E_impro  =         0.0000 E_vdwl   =       185.3410 
E_coul   =      4085.0345 E_long   =     -5248.6277 Press    =      -588.9938 
---------------- Step    14700 ----- CPU =    341.2887 (sec) ----------------
TotEng   =      -822.3051 KinEng   =       174.8951 Temp     =       294.8426 
PotEng   =      -997.2002 E_bond   =         0.0000 E_angle  =         0.0000 
E_dihed  =         0.0000 E_impro  =         0.0000 E_vdwl   =       195.9691 
E_coul   =      4055.5072 E_long   =     -5248.6765 Press    =      -632.1316 
---------------- Step    14800 ----- CPU =    343.6556 (sec) ----------------
TotEng   =      -837.8801 KinEng   =       182.2684 Temp     =       307.2726 
PotEng   =     -1020.1485 E_bond   =         0.0000 E_angle  =         0.0000 
E_dihed  =         0.0000 E_impro  =         0.0000 E_vdwl   =       221.9830 
E_coul   =      4007.0743 E_long   =     -5249.2058 Press    =       -74.8578 
---------------- Step    14900 ----- CPU =    346.0175 (sec) ----------------
TotEng   =      -818.8552 KinEng   =       172.5634 Temp     =       290.9117 
PotEng   =      -991.4186 E_bond   =         0.0000 E_angle  =         0.0000 
E_dihed  =         0.0000 E_impro  =         0.0000 E_vdwl   =       175.0261 
E_coul   =      4086.0733 E_long   =     -5252.5180 Press    =     -1166.4171 
---------------- Step    15000 ----- CPU =    348.3603 (sec) ----------------
TotEng   =      -803.0801 KinEng   =       187.4235 Temp     =       315.9633 
PotEng   =      -990.5036 E_bond   =         0.0000 E_angle  =         0.0000 
E_dihed  =         0.0000 E_impro  =         0.0000 E_vdwl   =       178.4697 
E_coul   =      4081.9508 E_long   =     -5250.9241 Press    =      -961.3862 
---------------- Step    15100 ----- CPU =    350.7139 (sec) ----------------
TotEng   =      -795.0230 KinEng   =       182.2287 Temp     =       307.2057 
PotEng   =      -977.2516 E_bond   =         0.0000 E_angle  =         0.0000 
E_dihed  =         0.0000 E_impro  =         0.0000 E_vdwl   =       193.9439 
E_coul   =      4078.8830 E_long   =     -5250.0786 Press    =      -402.7370 
---------------- Step    15200 ----- CPU =    353.1039 (sec) ----------------
TotEng   =      -789.4741 KinEng   =       181.9832 Temp     =       306.7919 
PotEng   =      -971.4573 E_bond   =         0.0000 E_angle  =         0.0000 
E_dihed  =         0.0000 E_impro  =         0.0000 E_vdwl   =       209.4268 
E_coul   =      4066.5649 E_long   =     -5247.4489 Press    =       304.0242 
---------------- Step    15300 ----- CPU =    355.4846 (sec) ----------------
TotEng   =      -820.4995 KinEng   =       177.9516 Temp     =       299.9954 
PotEng   =      -998.4511 E_bond   =         0.0000 E_angle  =         0.0000 
E_dihed  =         0.0000 E_impro  =         0.0000 E_vdwl   =       163.9447 
E_coul   =      4086.4545 E_long   =     -5248.8503 Press    =     -1424.9013 
---------------- Step    15400 ----- CPU =    357.8137 (sec) ----------------
TotEng   =      -813.1709 KinEng   =       179.2060 Temp     =       302.1101 
PotEng   =      -992.3769 E_bond   =         0.0000 E_angle  =         0.0000 
E_dihed  =         0.0000 E_impro  =         0.0000 E_vdwl   =       168.8118 
E_coul   =      4086.4021 E_long   =     -5247.5909 Press    =     -1099.5745 
---------------- Step    15500 ----- CPU =    360.1479 (sec) ----------------
TotEng   =      -797.2672 KinEng   =       207.2506 Temp     =       349.3883 
PotEng   =     -1004.5178 E_bond   =         0.0000 E_angle  =         0.0000 
E_dihed  =         0.0000 E_impro  =         0.0000 E_vdwl   =       198.7586 
E_coul   =      4047.6517 E_long   =     -5250.9280 Press    =      -459.5094 
---------------- Step    15600 ----- CPU =    362.5090 (sec) ----------------
TotEng   =      -830.1735 KinEng   =       180.1904 Temp     =       303.7695 
PotEng   =     -1010.3638 E_bond   =         0.0000 E_angle  =         0.0000 
E_dihed  =         0.0000 E_impro  =         0.0000 E_vdwl   =       173.9203 
E_coul   =      4066.6511 E_long   =     -5250.9352 Press    =     -1226.2270 
---------------- Step    15700 ----- CPU =    364.9567 (sec) ----------------
TotEng   =      -834.4161 KinEng   =       173.8306 Temp     =       293.0481 
PotEng   =     -1008.2467 E_bond   =         0.0000 E_angle  =         0.0000 
E_dihed  =         0.0000 E_impro  =         0.0000 E_vdwl   =       192.3875 
E_coul   =      4050.8937 E_long   =     -5251.5279 Press    =      -712.4289 
---------------- Step    15800 ----- CPU =    367.3441 (sec) ----------------
TotEng   =      -800.9721 KinEng   =       190.2487 Temp     =       320.7262 
PotEng   =      -991.2208 E_bond   =         0.0000 E_angle  =         0.0000 
E_dihed  =         0.0000 E_impro  =         0.0000 E_vdwl   =       202.9586 
E_coul   =      4054.6115 E_long   =     -5248.7909 Press    =      -341.6380 
---------------- Step    15900 ----- CPU =    369.6917 (sec) ----------------
TotEng   =      -821.6955 KinEng   =       194.4134 Temp     =       327.7470 
PotEng   =     -1016.1089 E_bond   =         0.0000 E_angle  =         0.0000 
E_dihed  =         0.0000 E_impro  =         0.0000 E_vdwl   =       164.2764 
E_coul   =      4069.1338 E_long   =     -5249.5191 Press    =     -1489.4974 
---------------- Step    16000 ----- CPU =    372.0972 (sec) ----------------
TotEng   =      -843.2273 KinEng   =       182.2857 Temp     =       307.3018 
PotEng   =     -1025.5129 E_bond   =         0.0000 E_angle  =         0.0000 
E_dihed  =         0.0000 E_impro  =         0.0000 E_vdwl   =       181.4082 
E_coul   =      4043.6994 E_long   =     -5250.6206 Press    =     -1154.8102 
---------------- Step    16100 ----- CPU =    374.5159 (sec) ----------------
TotEng   =      -848.5397 KinEng   =       173.8159 Temp     =       293.0233 
PotEng   =     -1022.3557 E_bond   =         0.0000 E_angle  =         0.0000 
E_dihed  =         0.0000 E_impro  =         0.0000 E_vdwl   =       210.9110 
E_coul   =      4013.9502 E_long   =     -5247.2168 Press    =      -354.5099 
---------------- Step    16200 ----- CPU =    376.8811 (sec) ----------------
TotEng   =      -853.6101 KinEng   =       178.9588 Temp     =       301.6934 
PotEng   =     -1032.5689 E_bond   =         0.0000 E_angle  =         0.0000 
E_dihed  =         0.0000 E_impro  =         0.0000 E_vdwl   =       202.6068 
E_coul   =      4015.8055 E_long   =     -5250.9812 Press    =      -705.4739 
---------------- Step    16300 ----- CPU =    379.2561 (sec) ----------------
TotEng   =      -830.3716 KinEng   =       176.5129 Temp     =       297.5699 
PotEng   =     -1006.8845 E_bond   =         0.0000 E_angle  =         0.0000 
E_dihed  =         0.0000 E_impro  =         0.0000 E_vdwl   =       187.8522 
E_coul   =      4051.7058 E_long   =     -5246.4425 Press    =      -887.5482 
---------------- Step    16400 ----- CPU =    381.6230 (sec) ----------------
TotEng   =      -827.1598 KinEng   =       185.1265 Temp     =       312.0910 
PotEng   =     -1012.2863 E_bond   =         0.0000 E_angle  =         0.0000 
E_dihed  =         0.0000 E_impro  =         0.0000 E_vdwl   =       217.9032 
E_coul   =      4018.2070 E_long   =     -5248.3965 Press    =      -116.3930 
---------------- Step    16500 ----- CPU =    383.9825 (sec) ----------------
TotEng   =      -806.0761 KinEng   =       176.5060 Temp     =       297.5584 
PotEng   =      -982.5821 E_bond   =         0.0000 E_angle  =         0.0000 
E_dihed  =         0.0000 E_impro  =         0.0000 E_vdwl   =       214.7826 
E_coul   =      4051.9293 E_long   =     -5249.2940 Press    =        71.9666 
---------------- Step    16600 ----- CPU =    386.3284 (sec) ----------------
TotEng   =      -821.4657 KinEng   =       187.5210 Temp     =       316.1276 
PotEng   =     -1008.9867 E_bond   =         0.0000 E_angle  =         0.0000 
E_dihed  =         0.0000 E_impro  =         0.0000 E_vdwl   =       191.3887 
E_coul   =      4047.4911 E_long   =     -5247.8664 Press    =      -747.0275 
---------------- Step    16700 ----- CPU =    388.6499 (sec) ----------------
TotEng   =      -831.2324 KinEng   =       172.9554 Temp     =       291.5726 
PotEng   =     -1004.1878 E_bond   =         0.0000 E_angle  =         0.0000 
E_dihed  =         0.0000 E_impro  =         0.0000 E_vdwl   =       198.9027 
E_coul   =      4045.9247 E_long   =     -5249.0153 Press    =      -450.2753 
---------------- Step    16800 ----- CPU =    390.9964 (sec) ----------------
TotEng   =      -803.9387 KinEng   =       194.9943 Temp     =       328.7264 
PotEng   =      -998.9330 E_bond   =         0.0000 E_angle  =         0.0000 
E_dihed  =         0.0000 E_impro  =         0.0000 E_vdwl   =       210.9656 
E_coul   =      4037.3446 E_long   =     -5247.2432 Press    =        81.7310 
---------------- Step    16900 ----- CPU =    393.3496 (sec) ----------------
TotEng   =      -825.7135 KinEng   =       172.4130 Temp     =       290.6583 
PotEng   =      -998.1266 E_bond   =         0.0000 E_angle  =         0.0000 
E_dihed  =         0.0000 E_impro  =         0.0000 E_vdwl   =       213.4595 
E_coul   =      4034.9791 E_long   =     -5246.5652 Press    =       -18.7665 
---------------- Step    17000 ----- CPU =    395.7250 (sec) ----------------
TotEng   =      -795.9171 KinEng   =       190.6165 Temp     =       321.3461 
PotEng   =      -986.5335 E_bond   =         0.0000 E_angle  =         0.0000 
E_dihed  =         0.0000 E_impro  =         0.0000 E_vdwl   =       201.7952 
E_coul   =      4058.3005 E_long   =     -5246.6293 Press    =      -132.9301 
---------------- Step    17100 ----- CPU =    398.1122 (sec) ----------------
TotEng   =      -809.2945 KinEng   =       163.4611 Temp     =       275.5669 
PotEng   =      -972.7556 E_bond   =         0.0000 E_angle  =         0.0000 
E_dihed  =         0.0000 E_impro  =         0.0000 E_vdwl   =       199.0887 
E_coul   =      4077.5198 E_long   =     -5249.3641 Press    =      -353.3960 
---------------- Step    17200 ----- CPU =    400.5319 (sec) ----------------
TotEng   =      -787.0294 KinEng   =       201.4289 Temp     =       339.5740 
PotEng   =      -988.4583 E_bond   =         0.0000 E_angle  =         0.0000 
E_dihed  =         0.0000 E_impro  =         0.0000 E_vdwl   =       168.2745 
E_coul   =      4090.3211 E_long   =     -5247.0539 Press    =     -1192.5687 
---------------- Step    17300 ----- CPU =    402.8706 (sec) ----------------
TotEng   =      -783.6085 KinEng   =       183.5865 Temp     =       309.4948 
PotEng   =      -967.1950 E_bond   =         0.0000 E_angle  =         0.0000 
E_dihed  =         0.0000 E_impro  =         0.0000 E_vdwl   =       204.7413 
E_coul   =      4077.1337 E_long   =     -5249.0699 Press    =       -40.1213 
---------------- Step    17400 ----- CPU =    405.1903 (sec) ----------------
TotEng   =      -818.1042 KinEng   =       171.7499 Temp     =       289.5404 
PotEng   =      -989.8541 E_bond   =         0.0000 E_angle  =         0.0000 
E_dihed  =         0.0000 E_impro  =         0.0000 E_vdwl   =       207.2545 
E_coul   =      4052.7955 E_long   =     -5249.9041 Press    =      -201.9316 
---------------- Step    17500 ----- CPU =    407.5195 (sec) ----------------
TotEng   =      -833.5892 KinEng   =       156.6097 Temp     =       264.0166 
PotEng   =      -990.1989 E_bond   =         0.0000 E_angle  =         0.0000 
E_dihed  =         0.0000 E_impro  =         0.0000 E_vdwl   =       215.3052 
E_coul   =      4041.9513 E_long   =     -5247.4554 Press    =        83.0336 
---------------- Step    17600 ----- CPU =    409.8531 (sec) ----------------
TotEng   =      -798.4978 KinEng   =       169.7583 Temp     =       286.1828 
PotEng   =      -968.2560 E_bond   =         0.0000 E_angle  =         0.0000 
E_dihed  =         0.0000 E_impro  =         0.0000 E_vdwl   =       202.7245 
E_coul   =      4078.9443 E_long   =     -5249.9249 Press    =        92.7098 
---------------- Step    17700 ----- CPU =    412.1665 (sec) ----------------
TotEng   =      -783.1791 KinEng   =       168.3725 Temp     =       283.8467 
PotEng   =      -951.5517 E_bond   =         0.0000 E_angle  =         0.0000 
E_dihed  =         0.0000 E_impro  =         0.0000 E_vdwl   =       192.0166 
E_coul   =      4105.4683 E_long   =     -5249.0366 Press    =        -7.5416 
---------------- Step    17800 ----- CPU =    414.5332 (sec) ----------------
TotEng   =      -810.2464 KinEng   =       175.5877 Temp     =       296.0102 
PotEng   =      -985.8340 E_bond   =         0.0000 E_angle  =         0.0000 
E_dihed  =         0.0000 E_impro  =         0.0000 E_vdwl   =       202.6426 
E_coul   =      4063.0233 E_long   =     -5251.4998 Press    =         0.4505 
---------------- Step    17900 ----- CPU =    416.9837 (sec) ----------------
TotEng   =      -843.2565 KinEng   =       176.7651 Temp     =       297.9951 
PotEng   =     -1020.0216 E_bond   =         0.0000 E_angle  =         0.0000 
E_dihed  =         0.0000 E_impro  =         0.0000 E_vdwl   =       202.7761 
E_coul   =      4028.5395 E_long   =     -5251.3372 Press    =      -557.8362 
---------------- Step    18000 ----- CPU =    419.3504 (sec) ----------------
TotEng   =      -850.8982 KinEng   =       165.2238 Temp     =       278.5385 
PotEng   =     -1016.1220 E_bond   =         0.0000 E_angle  =         0.0000 
E_dihed  =         0.0000 E_impro  =         0.0000 E_vdwl   =       209.7878 
E_coul   =      4023.2869 E_long   =     -5249.1966 Press    =      -330.1699 
---------------- Step    18100 ----- CPU =    421.7204 (sec) ----------------
TotEng   =      -821.7926 KinEng   =       174.4027 Temp     =       294.0126 
PotEng   =      -996.1953 E_bond   =         0.0000 E_angle  =         0.0000 
E_dihed  =         0.0000 E_impro  =         0.0000 E_vdwl   =       213.1322 
E_coul   =      4037.2204 E_long   =     -5246.5479 Press    =        42.2851 
---------------- Step    18200 ----- CPU =    424.1186 (sec) ----------------
TotEng   =      -800.1394 KinEng   =       175.8188 Temp     =       296.3998 
PotEng   =      -975.9582 E_bond   =         0.0000 E_angle  =         0.0000 
E_dihed  =         0.0000 E_impro  =         0.0000 E_vdwl   =       223.3486 
E_coul   =      4048.3346 E_long   =     -5247.6414 Press    =       492.3629 
---------------- Step    18300 ----- CPU =    426.5709 (sec) ----------------
TotEng   =      -835.9594 KinEng   =       175.4661 Temp     =       295.8052 
PotEng   =     -1011.4255 E_bond   =         0.0000 E_angle  =         0.0000 
E_dihed  =         0.0000 E_impro  =         0.0000 E_vdwl   =       220.1601 
E_coul   =      4018.1626 E_long   =     -5249.7482 Press    =       195.2518 
---------------- Step    18400 ----- CPU =    428.9547 (sec) ----------------
TotEng   =      -836.7066 KinEng   =       183.5121 Temp     =       309.3694 
PotEng   =     -1020.2187 E_bond   =         0.0000 E_angle  =         0.0000 
E_dihed  =         0.0000 E_impro  =         0.0000 E_vdwl   =       172.7037 
E_coul   =      4055.3892 E_long   =     -5248.3117 Press    =     -1380.6570 
---------------- Step    18500 ----- CPU =    431.2880 (sec) ----------------
TotEng   =      -808.6102 KinEng   =       189.8768 Temp     =       320.0992 
PotEng   =      -998.4871 E_bond   =         0.0000 E_angle  =         0.0000 
E_dihed  =         0.0000 E_impro  =         0.0000 E_vdwl   =       194.6932 
E_coul   =      4055.7469 E_long   =     -5248.9272 Press    =      -361.9453 
---------------- Step    18600 ----- CPU =    433.7169 (sec) ----------------
TotEng   =      -798.8657 KinEng   =       212.2863 Temp     =       357.8776 
PotEng   =     -1011.1520 E_bond   =         0.0000 E_angle  =         0.0000 
E_dihed  =         0.0000 E_impro  =         0.0000 E_vdwl   =       201.8089 
E_coul   =      4036.8632 E_long   =     -5249.8241 Press    =      -278.9336 
---------------- Step    18700 ----- CPU =    436.0830 (sec) ----------------
TotEng   =      -833.0140 KinEng   =       171.8216 Temp     =       289.6612 
PotEng   =     -1004.8356 E_bond   =         0.0000 E_angle  =         0.0000 
E_dihed  =         0.0000 E_impro  =         0.0000 E_vdwl   =       220.0301 
E_coul   =      4025.5897 E_long   =     -5250.4554 Press    =        28.3818 
---------------- Step    18800 ----- CPU =    438.4266 (sec) ----------------
TotEng   =      -810.3683 KinEng   =       191.7471 Temp     =       323.2522 
PotEng   =     -1002.1154 E_bond   =         0.0000 E_angle  =         0.0000 
E_dihed  =         0.0000 E_impro  =         0.0000 E_vdwl   =       198.5589 
E_coul   =      4048.4051 E_long   =     -5249.0794 Press    =      -356.2916 
---------------- Step    18900 ----- CPU =    440.8140 (sec) ----------------
TotEng   =      -837.2249 KinEng   =       180.5166 Temp     =       304.3196 
PotEng   =     -1017.7415 E_bond   =         0.0000 E_angle  =         0.0000 
E_dihed  =         0.0000 E_impro  =         0.0000 E_vdwl   =       219.0078 
E_coul   =      4011.7098 E_long   =     -5248.4591 Press    =       -13.7140 
---------------- Step    19000 ----- CPU =    443.2223 (sec) ----------------
TotEng   =      -837.3756 KinEng   =       164.9978 Temp     =       278.1575 
PotEng   =     -1002.3734 E_bond   =         0.0000 E_angle  =         0.0000 
E_dihed  =         0.0000 E_impro  =         0.0000 E_vdwl   =       198.9381 
E_coul   =      4050.4219 E_long   =     -5251.7334 Press    =      -332.2849 
---------------- Step    19100 ----- CPU =    445.6343 (sec) ----------------
TotEng   =      -830.2786 KinEng   =       173.7725 Temp     =       292.9501 
PotEng   =     -1004.0510 E_bond   =         0.0000 E_angle  =         0.0000 
E_dihed  =         0.0000 E_impro  =         0.0000 E_vdwl   =       179.4577 
E_coul   =      4066.7406 E_long   =     -5250.2493 Press    =      -936.8946 
---------------- Step    19200 ----- CPU =    447.9884 (sec) ----------------
TotEng   =      -807.2233 KinEng   =       169.9922 Temp     =       286.5772 
PotEng   =      -977.2155 E_bond   =         0.0000 E_angle  =         0.0000 
E_dihed  =         0.0000 E_impro  =         0.0000 E_vdwl   =       196.4772 
E_coul   =      4074.9795 E_long   =     -5248.6722 Press    =      -306.3681 
---------------- Step    19300 ----- CPU =    450.3816 (sec) ----------------
TotEng   =      -808.2872 KinEng   =       176.7198 Temp     =       297.9187 
PotEng   =      -985.0070 E_bond   =         0.0000 E_angle  =         0.0000 
E_dihed  =         0.0000 E_impro  =         0.0000 E_vdwl   =       183.4681 
E_coul   =      4081.8710 E_long   =     -5250.3460 Press    =      -733.8082 
---------------- Step    19400 ----- CPU =    452.7370 (sec) ----------------
TotEng   =      -828.3950 KinEng   =       168.3897 Temp     =       283.8756 
PotEng   =      -996.7847 E_bond   =         0.0000 E_angle  =         0.0000 
E_dihed  =         0.0000 E_impro  =         0.0000 E_vdwl   =       191.4985 
E_coul   =      4059.9831 E_long   =     -5248.2662 Press    =      -546.1708 
---------------- Step    19500 ----- CPU =    455.0732 (sec) ----------------
TotEng   =      -829.3306 KinEng   =       189.6603 Temp     =       319.7342 
PotEng   =     -1018.9910 E_bond   =         0.0000 E_angle  =         0.0000 
E_dihed  =         0.0000 E_impro  =         0.0000 E_vdwl   =       194.9263 
E_coul   =      4036.7015 E_long   =     -5250.6188 Press    =      -447.3249 
---------------- Step    19600 ----- CPU =    457.4589 (sec) ----------------
TotEng   =      -823.1327 KinEng   =       176.6173 Temp     =       297.7460 
PotEng   =      -999.7500 E_bond   =         0.0000 E_angle  =         0.0000 
E_dihed  =         0.0000 E_impro  =         0.0000 E_vdwl   =       197.1898 
E_coul   =      4055.1935 E_long   =     -5252.1333 Press    =      -303.3263 
---------------- Step    19700 ----- CPU =    459.8126 (sec) ----------------
TotEng   =      -798.7741 KinEng   =       181.8583 Temp     =       306.5813 
PotEng   =      -980.6324 E_bond   =         0.0000 E_angle  =         0.0000 
E_dihed  =         0.0000 E_impro  =         0.0000 E_vdwl   =       162.0813 
E_coul   =      4106.2265 E_long   =     -5248.9402 Press    =     -1243.2303 
---------------- Step    19800 ----- CPU =    462.1657 (sec) ----------------
TotEng   =      -827.0775 KinEng   =       176.5067 Temp     =       297.5595 
PotEng   =     -1003.5842 E_bond   =         0.0000 E_angle  =         0.0000 
E_dihed  =         0.0000 E_impro  =         0.0000 E_vdwl   =       173.1810 
E_coul   =      4071.3310 E_long   =     -5248.0962 Press    =     -1238.6369 
---------------- Step    19900 ----- CPU =    464.5325 (sec) ----------------
TotEng   =      -847.3334 KinEng   =       173.2200 Temp     =       292.0186 
PotEng   =     -1020.5533 E_bond   =         0.0000 E_angle  =         0.0000 
E_dihed  =         0.0000 E_impro  =         0.0000 E_vdwl   =       211.1524 
E_coul   =      4019.9979 E_long   =     -5251.7036 Press    =      -392.9428 
---------------- Step    20000 ----- CPU =    466.8848 (sec) ----------------
TotEng   =      -823.1061 KinEng   =       175.6956 Temp     =       296.1921 
PotEng   =      -998.8016 E_bond   =         0.0000 E_angle  =         0.0000 
E_dihed  =         0.0000 E_impro  =         0.0000 E_vdwl   =       209.6683 
E_coul   =      4042.7567 E_long   =     -5251.2266 Press    =      -244.8635 
---------------- Step    20100 ----- CPU =    469.2163 (sec) ----------------
TotEng   =      -814.3910 KinEng   =       177.2757 Temp     =       298.8558 
PotEng   =      -991.6667 E_bond   =         0.0000 E_angle  =         0.0000 
E_dihed  =         0.0000 E_impro  =         0.0000 E_vdwl   =       206.7237 
E_coul   =      4048.5413 E_long   =     -5246.9317 Press    =      -170.0167 
---------------- Step    20200 ----- CPU =    471.5416 (sec) ----------------
TotEng   =      -839.3491 KinEng   =       167.0541 Temp     =       281.6240 
PotEng   =     -1006.4031 E_bond   =         0.0000 E_angle  =         0.0000 
E_dihed  =         0.0000 E_impro  =         0.0000 E_vdwl   =       211.4147 
E_coul   =      4029.7015 E_long   =     -5247.5193 Press    =      -246.5399 
---------------- Step    20300 ----- CPU =    473.8592 (sec) ----------------
TotEng   =      -854.4961 KinEng   =       161.8371 Temp     =       272.8292 
PotEng   =     -1016.3333 E_bond   =         0.0000 E_angle  =         0.0000 
E_dihed  =         0.0000 E_impro  =         0.0000 E_vdwl   =       235.0623 
E_coul   =      3998.1670 E_long   =     -5249.5625 Press    =       232.9843 
---------------- Step    20400 ----- CPU =    476.2507 (sec) ----------------
TotEng   =      -827.6805 KinEng   =       193.8840 Temp     =       326.8546 
PotEng   =     -1021.5645 E_bond   =         0.0000 E_angle  =         0.0000 
E_dihed  =         0.0000 E_impro  =         0.0000 E_vdwl   =       231.9194 
E_coul   =      3998.3447 E_long   =     -5251.8287 Press    =       148.4877 
Loop time of 476.251 on 1 procs for 20000 steps with 300 atoms

Performance: 7.257 ns/day, 3.307 hours/ns, 41.995 timesteps/s
100.0% CPU use with 1 MPI tasks x no OpenMP threads

MPI task timing breakdown:
Section |  min time  |  avg time  |  max time  |%varavg| %total
---------------------------------------------------------------
Pair    | 41.418     | 41.418     | 41.418     |   0.0 |  8.70
Bond    | 0.011863   | 0.011863   | 0.011863   |   0.0 |  0.00
Kspace  | 428.86     | 428.86     | 428.86     |   0.0 | 90.05
Neigh   | 4.4472     | 4.4472     | 4.4472     |   0.0 |  0.93
Comm    | 0.696      | 0.696      | 0.696      |   0.0 |  0.15
Output  | 0.017061   | 0.017061   | 0.017061   |   0.0 |  0.00
Modify  | 0.68119    | 0.68119    | 0.68119    |   0.0 |  0.14
Other   |            | 0.1229     |            |       |  0.03

Nlocal:    300 ave 300 max 300 min
Histogram: 1 0 0 0 0 0 0 0 0 0
Nghost:    5373 ave 5373 max 5373 min
Histogram: 1 0 0 0 0 0 0 0 0 0
Neighs:    105229 ave 105229 max 105229 min
Histogram: 1 0 0 0 0 0 0 0 0 0

Total # of neighbors = 105229
Ave neighs/atom = 350.763
Ave special neighs/atom = 2
Neighbor list builds = 1447
Dangerous builds = 96
Total wall time: 0:08:05
