ITEM: TIMESTEP
1000
ITEM: NUMBER OF ATOMS
300
ITEM: BOX BOUNDS pp pp pp
-9.9943299999999997e+00 1.0005670000000000e+01
-9.9461431999999999e+00 1.0053856800000000e+01
-9.7533399999999997e+00 1.0246660000000000e+01
ITEM: ATOMS x y z vx vy vz 
-4.79421 -8.89355 -4.7857 0.00187072 -0.000731411 0.00615153 
-4.33026 -9.7765 -4.71389 -0.00890695 -0.00585849 0.0131637 
-5.15887 -8.63487 -3.89122 -0.000612956 0.0077127 0.00268561 
-1.25137 -4.03104 -7.51828 0.00123787 0.00388592 0.00271707 
-0.639036 -4.25699 -8.2759 -0.00308034 0.00107893 4.42495e-05 
-1.79078 -4.83685 -7.27393 -0.00387068 0.00728759 0.00273554 
-3.65302 -0.606467 -8.6584 -0.00481068 -0.0018647 0.00348477 
-3.24398 -1.38859 -8.18833 -0.00541081 -0.000461119 0.00631791 
-9.42886 -8.20145 -6.40606 0.000491782 0.00241198 0.00223865 
-9.46436 -7.21401 -6.56 0.00207975 -6.05539e-05 -0.014036 
9.76724 -8.63192 -6.81648 -0.0040608 -0.00232573 0.0157678 
-3.45594 -7.71571 -2.51292 -0.00256843 -0.00265074 -0.000122574 
-3.25805 -7.04342 -3.22626 5.5304e-05 -0.00890416 -0.00532271 
-4.33644 -7.50291 -2.08932 -0.00628425 -0.00161054 -0.00837178 
-2.24586 -1.69059 -6.19119 0.00371658 -0.00584383 -0.00411057 
-1.6233 -2.22199 -6.76567 0.0007727 -0.0211155 0.00700403 
-2.84557 -2.31154 -5.68645 -0.0183268 0.00870231 -0.0122909 
-6.39072 -1.83239 -6.65571 0.00136467 4.62865e-05 0.000972079 
-5.72078 -1.61251 -7.36482 -0.00702294 0.0018241 -0.00636379 
-6.02536 -1.57584 -5.7609 0.0211384 -0.0227044 -0.000380513 
-9.70379 0.34116 -9.05746 -0.00863466 -0.0107424 -0.0205317 
-8.69768 -2.67567 -7.5486 0.00135109 -0.00163845 0.00328535 
-8.90313 -1.93301 -8.18597 0.00177523 -0.00809414 -0.00432268 
-7.83628 -2.48292 -7.07867 0.000305475 0.00377801 0.00298905 
-6.34685 -7.50782 -2.38356 -0.00563965 -0.00127513 -0.00378999 
-6.84909 -6.8915 -1.77701 -0.00800283 -0.007111 0.000171674 
-6.32977 -7.12553 -3.30745 -0.00984286 0.00319048 -0.00201086 
-2.37652 9.39183 -3.34552 -0.0030686 -0.0138384 0.00478184 
-6.3461 -6.5327 -4.81673 -0.00420044 -0.00137351 -0.00134763 
-5.84957 -7.11553 -5.45998 0.00908687 0.00740607 0.000915934 
-7.25708 -6.33647 -5.17951 -0.0034404 -0.0116484 -0.00880839 
-2.8692 -2.89417 -3.2503 -0.00241726 0.00160089 -0.00573578 
-1.90985 -2.61264 -3.23074 0.000641586 -0.0079775 -0.019599 
-2.92721 -3.86413 -3.48654 -0.0161318 0.00474661 -0.0151832 
-3.12245 -5.55209 -4.41722 -0.00213199 -0.000896262 -0.00126042 
-2.44289 -5.97357 -5.01767 0.00209347 0.0133558 -0.00640637 
-4.01684 -5.56632 -4.86429 0.00325604 0.0202823 -0.0126938 
-8.63545 0.728019 9.78432 -0.00518959 -0.00412742 -0.00437648 
-7.66128 0.52242 9.87778 -0.00371516 0.00661814 0.00333778 
0.230462 -1.69102 -4.49318 -0.0171339 0.00602195 0.00524496 
-5.26451 -1.8634 -2.75187 -0.00679988 0.0027825 0.00749989 
-4.41628 -2.38329 -2.65081 -0.00447345 0.0052014 -0.000206159 
-6.04493 -2.48717 -2.70887 -0.0040235 -0.00124737 -0.000756432 
-7.05225 -9.0124 -2.64104 -0.00434247 -0.00490092 0.0225774 
0.352776 -8.28488 -5.14978 -0.00255596 -0.00346296 0.00524025 
-0.208439 -7.92127 -5.8933 -0.00112397 -0.00736022 0.00223501 
0.0566885 -9.21509 -4.93287 -0.0174527 0.00564213 0.0244533 
-9.08368 -4.53535 -6.85104 0.00433333 -0.000806846 -0.000166187 
-1.77262 0.333743 -6.34031 -0.0117316 0.00202093 -0.0110719 
-2.6017 -7.56685 -6.7939 0.0124597 -0.0134023 -0.00700698 
-5.89588 0.479262 10.2547 -0.00108422 -0.00030092 0.00734374 
-5.20253 -0.231536 -9.62682 0.00131626 0.00145998 0.00387663 
9.89261 -6.70854 -3.71234 0.0115816 0.00757906 0.000186059 
-8.94016 -5.32801 -6.25851 0.00595467 0.00430294 0.00631862 
-9.17245 -5.08634 -5.31636 0.0120452 0.0134937 0.00550427 
2.16665 -5.10656 -8.59168 0.00823872 -0.00693772 -0.0186918 
9.4974 0.0323754 -8.54117 -0.000715238 0.00298202 -0.000360599 
9.57019 -5.76934 -3.83042 0.000501254 0.00342268 -0.00255994 
8.58825 -5.72829 -3.64571 0.0025381 -0.00518377 0.0100622 
0.00921141 -2.61302 -4.17544 0.00475945 -0.000421544 0.00178015 
-7.45709 -9.84511 -3.01879 0.00422212 0.000279355 0.00185121 
-4.25982 -9.60101 -7.71046 0.0258959 -0.00577839 -0.010967 
-1.9261 -6.82958 -6.79525 -0.000755501 -0.00124921 -0.00150752 
0.52446 -4.5318 -9.40511 0.0025211 -0.00286647 4.86226e-05 
5.97443 -6.12193 -3.51345 -0.00361796 0.00982955 0.00084216 
5.10382 -9.94231 -8.0867 0.00123625 0.00177605 0.000238451 
4.29999 -9.36678 -7.93631 0.000981273 -0.00299686 0.0170704 
5.92433 -9.45255 -7.7919 0.000595233 -0.00811492 0.0183146 
2.28154 -8.0063 -3.42596 -0.000933287 0.00805665 0.00433128 
1.51528 -7.79681 -4.03338 0.0041882 0.0117951 -0.000860293 
2.35625 -8.9971 -3.31314 -0.011393 0.00802719 0.0110527 
0.951995 -7.93053 -0.917134 -0.00620646 0.00448736 0.00539609 
1.33601 -7.6178 -1.78589 -0.00561038 -0.00621298 0.00181672 
1.65606 -8.4127 -0.395782 -0.00655623 0.0109509 0.0118285 
8.7185 -9.17629 -8.18353 -0.00119887 0.000264974 0.00792242 
7.91495 -9.28911 -7.59907 -0.000625501 0.00163535 0.00894963 
8.52401 -8.49567 -8.88988 -0.00329468 -0.00435049 0.00409139 
8.6221 -2.21899 -6.61007 0.00158038 -0.00129802 -0.0006168 
9.52816 -2.62506 -6.72912 -0.00731638 -0.0155547 -0.019742 
8.63506 -1.27365 -6.93587 0.0102304 -0.000639435 0.00156901 
5.02146 -2.01219 -9.77322 -0.0142329 0.0047673 0.000275853 
5.87761 -2.46495 -6.54529 0.00071786 0.00779098 -0.00322456 
6.86241 -2.58244 -6.67314 0.000442854 0.0105285 -0.00795293 
5.44972 -3.35894 -6.41231 0.00163912 0.00522045 -0.0174928 
2.58852 9.36278 -2.72102 -0.00528093 -0.00361451 0.00284273 
3.36059 8.74724 -2.87917 -0.000659222 -0.000350921 0.01268 
3.03944 -5.54156 -8.37033 0.00604895 -0.00255539 -0.00146472 
3.45999 -5.06973 -7.5954 -0.0156993 -0.00589392 0.0123837 
4.15117 -6.15699 -3.78172 0.00671261 0.00119589 -0.00160209 
3.48765 -6.89171 -3.64055 -0.0105989 0.0159379 -0.00653243 
4.26273 -5.64085 -2.93252 0.0116877 -0.000901927 -0.000923802 
8.66915 0.421838 -8.94406 -0.00502109 0.00980704 0.0150797 
1.14236 -0.509997 -6.39929 0.000492491 -0.00159819 -0.00501552 
1.94478 -0.21313 -6.91697 0.0162984 -0.00457959 0.0178686 
4.91435 -4.95859 -6.12834 0.000777256 0.00771942 -0.00637503 
4.68719 -5.28147 -5.20957 -0.0194152 -0.0239706 -0.0228099 
5.83014 -5.27487 -6.37589 -0.0150822 -0.0284231 -0.0185701 
4.18799 -1.22142 -4.92375 -0.00567457 0.00340245 -0.00386289 
4.96783 -1.49101 -5.4887 0.00916105 0.0166581 0.0101331 
0.554596 -3.28026 -4.68273 0.0223801 0.0145763 0.000927852 
7.71689 -5.53656 -6.55375 0.000220583 0.00689219 0.00452977 
7.87201 -5.68552 -5.57715 0.0186904 0.00805769 0.00175372 
8.30068 -4.79048 -6.87401 0.0182204 -0.0155398 -0.014595 
5.02584 -2.3849 -2.56146 0.004281 -0.00461258 0.00819564 
5.91851 -2.77964 -2.77897 0.00268291 -0.00786528 0.00747595 
4.7696 -1.72877 -3.27127 0.00866146 0.000579841 0.011358 
7.10918 -8.26404 -6.2526 0.00361714 -0.00152766 -0.00235456 
7.20069 -7.27188 -6.33762 -0.021579 0.000238572 -0.00927238 
6.89573 -8.49907 -5.30434 0.00363792 0.000154807 -0.00193725 
7.21389 -8.21092 9.89625 0.00445747 -0.00612293 0.00248916 
7.24272 -9.09033 9.42106 0.0112165 0.00200375 -0.0121397 
6.30357 -7.80878 9.79831 0.00209143 -0.0103579 0.0070999 
5.49426 -3.98121 9.80044 0.00553023 -0.00130415 -0.0102923 
4.78075 -4.44647 9.27657 -0.00342188 -0.00389236 0.00416517 
6.00958 -4.65347 -9.66805 -0.00363298 0.0045647 0.0060612 
4.08122 -4.73978 -1.53294 -0.00467738 0.000296125 0.000943789 
4.47951 -3.95372 -2.00566 -0.0147977 0.000724447 -0.00676646 
3.82822 -4.4759 -0.602153 0.00858291 0.00137097 0.00429676 
6.95054 -6.25891 -3.68209 -0.00419022 0.00751608 -0.000635331 
7.21886 -7.16906 -3.36643 -0.00678985 0.00522089 -0.00510802 
7.45566 -8.86858 -3.14761 0.00221429 0.000950647 0.00138541 
8.43216 -8.65917 -3.09682 0.00543668 -0.0100255 -0.0153156 
3.35194 -1.62537 -5.29502 0.00735783 -0.00816846 -0.020875 
0.501093 0.252361 -6.31216 0.0115852 0.0075248 -0.00280039 
1.36105 9.77577 -8.66815 -0.0110844 0.00393791 -0.00745709 
0.458506 -5.01836 9.72374 0.000796601 -0.00396449 0.000794951 
3.18405 -8.05814 -6.40622 -0.00942494 0.015897 0.000717027 
7.30615 -9.82452 -2.895 0.000856736 -0.010001 -0.0402324 
-2.93963 0.0566761 -8.88493 -0.00269796 -0.0082471 -0.00857243 
-8.91139 0.608318 8.83063 0.00777684 0.0109626 -0.00998541 
-1.24448 1.17794 -6.43191 -0.00536395 -0.000377091 0.00349674 
-1.2314 1.6597 -5.55571 -0.0332627 0.00312079 0.00193542 
-7.74058 0.722504 -6.59043 0.00598584 -0.00185443 -0.0054839 
-6.90161 0.268011 -6.29117 0.00769486 0.00914092 0.00629526 
-8.49465 0.0657149 -6.58778 0.00934877 -0.00569649 0.00763993 
-2.6744 0.71767 -3.0794 0.00222556 -0.00102622 0.00257435 
-3.16552 -0.149455 -2.99641 0.0206149 -0.0113933 0.00348874 
-5.73765 0.108108 -4.87209 0.00436007 0.000235564 0.00660176 
-5.62097 -0.345648 -3.98864 -0.00589215 0.00820336 0.0120869 
-5.51424 1.07852 -4.7805 -0.00043178 0.0018425 0.0014021 
-1.24655 1.34064 -8.15727 -0.00627991 0.0236497 -0.00111113 
-7.60135 9.20281 -6.50907 0.00267865 -0.00219477 -0.00907316 
-8.1521 8.67564 -5.86194 -0.00180843 0.00566361 -0.00645832 
-8.03499 10.0892 -6.67115 0.0174054 0.00618619 -0.00267483 
-8.53261 5.18269 -7.14527 0.00436987 -0.00470106 -0.00411785 
-8.27377 5.60054 -8.01614 0.00260176 0.00731439 0.00104262 
-0.161956 9.02524 -5.55439 0.00569754 -0.00377678 -0.00146738 
-1.01588 8.67273 -5.93721 -0.00213402 -0.00606751 0.018174 
0.568936 8.93504 -6.23089 -0.0134444 0.0143184 -0.0245308 
-7.42459 3.14972 -5.51407 -0.000132958 0.00237333 -0.000393918 
-7.93816 3.84405 -6.0182 -0.01146 -0.0122851 -0.00896169 
-7.79207 2.24411 -5.72576 0.0157098 -0.00632057 0.00963761 
-3.02612 8.9849 -3.98771 -0.00287867 -0.00597045 -0.000437511 
-3.74176 8.5059 -3.47936 0.00186833 -0.0197603 -0.00669946 
-2.7229 7.92943 -6.48896 0.00331488 0.00259246 0.00537601 
-2.7811 8.26345 -5.54819 -0.00427149 -0.0160087 0.0115429 
-3.61939 8.00488 -6.92554 0.000730968 -0.012426 0.00785121 
-3.78312 2.74403 -4.46343 0.00201128 -0.00387566 -0.000123324 
-4.46335 3.17598 -3.87122 0.00468017 0.00438784 -0.00309754 
-2.98922 3.34543 -4.55308 -0.00527809 0.00206785 -0.0253727 
-1.59144 4.37626 -4.36444 0.00200422 -0.00416184 0.00443814 
-1.04669 4.66379 -5.1522 0.00428264 -0.0147197 0.00219346 
-1.20045 4.76361 -3.52952 0.00465425 -0.000128382 0.00131606 
0.0127386 8.65505 -3.81589 0.000503138 0.0181857 0.0081539 
-4.23866 5.90634 -2.96117 0.000482329 0.000163007 -0.00338472 
-4.85453 5.17194 -3.24643 0.00189078 -0.00483918 0.00665316 
-3.34468 5.77723 -3.39027 0.00292516 -0.00799527 0.00424442 
-2.55586 5.23564 -7.14933 0.00256621 0.00435008 -0.00128847 
-3.39626 4.7827 -6.85172 0.00559345 -0.00978697 -0.01407 
-2.63923 6.22155 -7.00436 -0.00610337 0.000208905 0.0217464 
-5.90577 3.71688 -3.25147 0.0022786 0.00325065 -0.00691351 
-6.46419 3.87838 -2.43778 0.00343947 -0.0303981 0.000474336 
-6.49802 3.47091 -4.01876 0.00335316 0.00968007 -0.00980309 
-3.27866 1.40592 -3.48085 -0.0118938 -0.0146177 0.000428096 
-5.29591 8.69184 -7.64098 -0.00322415 0.00599386 -0.00351055 
-5.5944 8.19087 -8.45334 -0.00189123 -0.0107605 0.00627209 
-6.08323 8.86846 -7.05027 -0.00322001 0.0126564 -0.00556163 
-8.01585 6.19486 -9.37723 -0.0038543 0.00158821 -0.000790789 
-5.45738 8.3979 -2.1613 0.00224059 -0.00180591 0.00145745 
-5.2646 7.48336 -2.5169 0.0335708 -0.00519427 0.0275282 
-5.40637 8.38485 -1.16269 -0.00304856 0.0271827 0.00203315 
-3.14289 3.73217 -9.41449 -0.00489763 -0.000534062 -0.00123564 
-4.11502 3.50011 -9.44773 -0.00707275 0.0061715 0.0155518 
-6.83753 9.38468 -2.86739 0.00466576 -0.000199613 -0.00239817 
-9.81505 3.61963 9.42473 -0.0228672 0.0177718 0.0130706 
-2.04213 -8.77868 -2.41209 0.0079844 0.0109584 0.014123 
-9.67254 -8.31221 -3.75306 0.0029111 0.00335661 -0.00284899 
-8.76647 -8.59427 -3.43764 -4.97558e-05 0.0046931 0.00684601 
-5.48174 4.88741 -6.88985 0.00463171 0.000545977 -0.0111068 
-5.86221 5.81191 -6.91318 0.01101 0.00383144 0.0126276 
-6.10527 4.28274 -6.39428 0.0135111 -0.00190791 -0.00300023 
-5.79661 3.46199 -9.18745 -0.00662404 0.00479504 -0.00144811 
-5.75009 3.82142 -8.25544 -0.00545126 0.0126744 -0.00460982 
-6.74459 3.23441 -9.41003 -0.00330274 -0.0220212 0.0112747 
-9.83656 3.31679 -8.69956 -0.000819118 0.00185928 -0.00401422 
-9.55278 3.79898 -7.87072 0.0108213 0.0234753 -0.0207908 
-9.42034 2.40767 -8.71534 -0.0151341 -0.00514069 0.0227051 
-2.96623 4.31495 -8.62129 0.0165603 -0.0199208 0.00825455 
-9.86387 -8.73536 -4.63868 0.0119394 0.000890197 -0.00360661 
-0.606033 -8.92509 -1.64864 0.00487144 -0.0226672 0.0135923 
-9.06505 5.83615 -6.60722 0.00488 -0.0123007 0.00573783 
0.016551 2.31695 -2.42113 0.0188013 0.00918311 -0.00369317 
-0.779278 1.13492 -3.21873 -0.00475203 0.0107969 0.0174218 
1.52966 8.33186 -7.79674 0.000847824 -0.00664662 0.00340427 
1.40411 7.69923 -8.56095 0.00204066 -0.00990996 0.00591605 
0.166381 8.36781 -2.87044 -0.00279757 -0.00881247 0.000663501 
-0.235334 9.03989 -2.2484 0.0162009 -0.0139985 0.0187149 
-8.27518 5.71375 9.78535 0.00208582 -0.00295282 1.13493e-05 
-9.48367 4.26804 8.73935 0.000572178 -0.00619423 0.0018082 
-1.29594 -9.40612 -2.1896 0.00107427 -0.00217216 0.000206642 
-9.85776 7.49469 -5.08851 -0.00878934 -0.0330625 0.012697 
5.19935 8.60895 -8.87007 -0.012248 0.000165899 0.0111748 
-9.70356 8.15212 -3.39839 -0.00134065 -0.00434413 0.00756693 
-8.93236 8.78783 -3.43206 -0.00748336 0.00206993 -0.0151721 
9.52817 8.58475 -2.92659 -0.0070663 0.00680571 -0.0119273 
-0.280302 5.79435 -1.92422 0.000162093 0.000912259 0.00896724 
-0.125832 6.77178 -2.06836 -0.0169258 0.00247733 0.00154934 
0.523221 5.39086 -1.48656 0.0128038 0.0154602 -0.000864258 
1.50129 -9.27339 -8.94426 -0.0024777 0.00379278 -0.00365656 
9.96259 8.17492 -9.04988 -0.00337662 -0.00181427 -0.000737257 
-9.95822 7.78654 -8.13179 -0.00918895 -0.00461161 -0.00141649 
9.5907 9.1012 -8.98904 0.00346511 0.000851058 0.000322437 
-8.69628 6.89857 -9.17274 -0.00952108 -0.00264478 -0.00506743 
1.73198 8.86446 -2.85524 -0.00150789 -0.00156768 -0.0298663 
7.53204 6.44127 10.1641 -0.00380281 -0.00595571 0.00865589 
7.47785 5.46879 9.93757 0.0251395 -0.0100054 0.0192542 
8.47278 6.75916 10.046 -0.0107036 0.0177198 0.0175943 
5.15165 -1.32076 -9.06261 -0.000875956 0.00200584 0.000610369 
5.31729 -1.77139 -8.1854 0.00366872 -0.00153925 -0.00207802 
-9.80752 7.2997 -6.06803 0.00226147 -0.00180643 0.00706754 
9.30097 6.98184 -6.39078 0.00694999 0.00484881 -0.0123807 
1.63053 3.93684 -4.22052 0.000333529 -0.00308432 0.00470262 
1.21082 3.0471 -4.04111 0.00138333 -0.0101588 -0.0274982 
1.2147 4.34363 -5.03392 0.0173898 0.01465 0.00484828 
7.12757 0.74003 -9.51986 0.00635833 -0.00505583 -0.000322701 
6.39988 0.586052 -8.85147 0.00987442 -0.0245188 -0.00106895 
6.9139 0.248945 9.63564 0.0158429 -0.00323773 -0.00376737 
5.12903 7.61581 -8.96348 -0.00318236 0.00107584 -0.00417753 
5.95793 7.26225 -9.39698 -0.000996617 0.0156535 -0.0117521 
8.03525 6.40495 -7.10841 -0.0017219 0.000514353 -0.000929122 
7.2705 6.52054 -6.47455 -0.0109645 0.0145275 -0.0147287 
7.68525 6.32235 -8.04151 0.0103465 -0.0449115 -0.00151564 
-0.0517905 1.81784 -3.28497 0.00120147 0.00287859 0.00131503 
2.24204 -8.875 -8.40335 -0.0232681 0.00593542 0.0230869 
3.2492 0.211587 -7.9429 0.00449928 -0.00318045 -0.00480608 
3.97993 -0.268878 -8.42785 0.0299053 0.0212552 0.00928165 
3.73338 5.2738 -8.00305 0.00495666 0.00251923 -0.000670933 
4.27003 4.73117 -7.35686 0.00326198 -0.00889839 -0.00877968 
4.31098 5.98751 -8.39928 0.0142318 -0.00980705 -0.0094423 
0.202889 4.70799 -6.86592 0.00271638 0.00614685 -0.00181855 
-0.66578 5.0304 -7.24204 -0.00716048 0.00627531 0.0213875 
0.689814 4.17697 -7.55941 -0.0236399 -0.00849457 -0.00919271 
4.1421 4.33026 -5.1171 -0.00884381 -0.00140742 0.0020851 
3.22578 4.25802 -4.72321 -0.0128083 -0.0135854 -0.0093223 
4.59232 3.43812 -5.07964 0.00573388 0.00658905 0.0155895 
4.92898 1.56139 -4.68706 -0.00262166 -0.00141744 0.00300448 
5.09286 0.827354 -4.02802 0.00747506 -0.0186716 -0.0186824 
4.29439 1.24199 -5.39082 0.0168178 0.00450412 -0.0171359 
4.54399 7.67944 -3.28051 2.22424e-05 0.00406512 -0.00154248 
4.05468 6.93094 -2.83295 -0.00610846 0.0189436 0.0168108 
4.93112 7.35553 -4.14377 0.0118209 -0.0246748 0.014529 
5.71541 6.87436 -5.69964 -0.00281151 0.00394607 0.0031001 
5.24454 6.02671 -5.45516 -0.00629367 0.00817196 0.0111594 
5.14012 7.40853 -6.31908 0.000525139 -0.000848607 -0.0040891 
3.03446 5.45027 -2.30233 0.000459573 -0.00315988 0.0031106 
2.2215 5.28166 -2.85971 0.0154321 -0.0039949 -0.0181246 
3.24432 4.63439 -1.76355 -0.000764776 -0.00979556 -0.00648736 
7.51065 8.75741 -2.12858 -0.000609216 0.00142251 -0.00439128 
6.53274 8.58778 -2.25072 0.00188638 -0.0158418 -3.10191e-06 
7.81128 8.36387 -1.25982 0.00945617 0.00999784 -0.00397972 
7.60895 3.71904 10.1306 -0.00281347 -0.000489862 -0.00667671 
8.46495 3.82732 -9.36383 0.00751158 -0.00743881 -0.0227031 
7.29001 2.77489 10.2135 -0.00947393 0.00236373 0.000161677 
-1.51517 -6.75567 -7.70392 0.0189672 -0.00631677 0.00711492 
-3.81178 -8.80774 -7.29818 -0.00390291 0.00843161 -0.00609608 
-4.08839 -8.72907 -6.34042 0.0123785 -0.0223769 0.00123535 
-5.54772 1.34698 -9.39057 -0.00984304 -0.00418176 0.0254901 
0.666434 -3.55708 -9.57762 0.00230162 -0.00310011 -0.0014587 
0.912451 -1.87123 -9.25585 -0.00640463 0.0111964 -0.0018371 
0.725273 -1.86213 -8.27357 0.00870105 0.0187542 0.00096961 
1.34808 -1.01079 -9.52018 -0.00317577 0.00590215 -0.0136935 
-1.07126 -7.78978 -9.25019 0.00393223 -0.00676723 -0.00628852 
3.33014 -8.00539 -7.39408 0.000200742 -0.000187385 0.00131644 
3.36031 -7.04638 -7.67586 0.0169011 -0.00455233 -0.0119516 
4.62374 -6.96698 9.98373 -0.00163482 0.0051643 0.000723474 
4.08934 -6.46949 -9.33295 0.000206811 -0.000999981 0.00670405 
4.09437 -7.74684 9.64969 -0.0028319 0.00862381 -0.00544843 
-0.16188 -8.20026 -9.31755 -0.000529605 -0.0197197 0.0128397 
-1.7596 -8.51263 -9.18954 -0.00645315 0.00320506 -0.00552167 
-1.42538 1.46971 -9.13265 -0.00111902 -0.0025741 -0.00544946 
-1.73248 2.40761 -9.29399 0.0167333 -0.00167045 -0.0345857 
2.35758 8.08571 -7.2928 0.0122494 0.00914629 -0.00762235 
1.49706 1.29986 -9.62915 -0.000641682 0.0019741 0.0025956 
1.68195 2.23299 -9.32078 -0.00873931 0.00766124 -0.00986044 
2.64158 0.649837 -8.60527 0.0262261 0.0111036 -0.0152883 
9.89226 4.27519 7.95801 -0.00858272 0.0157978 0.00931069 
1.66356 3.96718 -9.05414 -0.00693236 -0.00184134 -0.00252557 
2.41348 4.42188 -8.57365 0.00087512 -0.0205145 0.00303711 
1.67228 4.23713 9.98303 -0.00504602 0.0132865 0.00174401 
0.526995 1.2093 10.1455 -0.00429275 -0.0157369 0.0257407 
ITEM: TIMESTEP
2000
ITEM: NUMBER OF ATOMS
300
ITEM: BOX BOUNDS pp pp pp
-9.9943299999999997e+00 1.0005670000000000e+01
-9.9461431999999999e+00 1.0053856800000000e+01
-9.7533399999999997e+00 1.0246660000000000e+01
ITEM: ATOMS x y z vx vy vz 
-5.47183 8.9412 -5.80063 0.00329586 0.000142947 0.00258381 
-4.47418 8.99043 -5.84823 0.00199146 0.0263549 0.00248121 
-5.74008 8.3089 -5.07383 0.0198434 0.0161001 0.0226601 
-0.608316 -5.8282 10.0618 -0.00183447 -0.00702095 0.000228734 
-0.68937 -6.41223 9.25413 0.00635423 -0.0138305 0.00436006 
-0.853836 -6.3517 -9.1223 -0.00626087 -0.0012819 0.00254968 
-4.06169 -1.77263 -8.52749 0.00755664 0.000386981 -0.00717527 
-3.95978 -2.61797 -9.05192 -0.0160538 0.00254879 -0.0153744 
-8.29743 -8.90437 -7.34875 -0.00273073 -0.00128441 0.000891102 
-8.6022 -9.72671 -7.82925 -0.030666 2.14834e-05 0.016652 
-8.80127 -8.11171 -7.69201 0.00100047 0.00462853 0.00904886 
-3.53805 -6.85964 -3.65171 0.000832999 -0.00291446 0.00178486 
-4.23334 -6.29393 -4.09503 -0.00136121 -0.0205236 -0.0168471 
-3.85301 -7.12097 -2.73929 -0.0195508 -0.0160721 -0.0090515 
-3.29576 -4.45467 -9.28668 0.00521108 0.000849845 -0.00637707 
-2.35255 -4.52449 -9.61146 0.00678913 0.0111287 -0.00412426 
-3.41164 -5.02581 -8.47405 0.0132009 0.0107789 0.0016691 
-6.8848 -2.5388 -4.63276 -0.000598287 0.00483008 -0.0044221 
-5.913 -2.38503 -4.81151 -0.00173674 0.0212041 0.00278683 
-7.06587 -3.52165 -4.59782 0.0150795 0.00167787 -0.00891455 
9.14093 -0.856565 -6.50326 -7.63503e-05 0.000978827 0.000935538 
10.0683 -0.949453 -6.86557 0.00519958 0.0104489 0.0119264 
8.47976 -0.988127 -7.24188 0.0101062 -0.00352495 -0.00735973 
-8.46643 -8.79422 -3.30651 0.00267463 -0.0106941 -0.00929071 
-9.21894 -8.17428 -3.52879 0.00418239 -0.00766262 -0.0057659 
-7.90594 -8.94362 -4.12108 0.00496935 -0.00389292 -0.00888932 
-5.61632 -6.12558 -5.12353 0.00270075 0.00471274 0.0032311 
-5.77526 -7.10805 -5.221 0.00963166 0.00382732 0.000709372 
-6.47922 -5.63475 -5.2439 0.00368876 0.000708949 -0.0214241 
-1.07515 -4.95691 -5.21333 -0.00393582 0.00113928 0.00144644 
-0.226433 -4.80209 -5.719 -0.00922203 0.0228877 -0.000442601 
-1.82094 -5.12617 -5.85766 -0.000707047 -0.0194304 0.0031477 
-3.21905 -5.5465 -6.83831 0.000923827 -0.00296496 -0.00294621 
-2.86575 -6.40664 -7.20618 -0.00258543 -0.00415208 -0.00356399 
-3.97605 -5.73717 -6.21334 -0.00122535 -0.000189844 -0.00470761 
0.932482 -2.38535 -6.20517 -0.0245082 0.00112162 0.010636 
0.0132397 -2.41444 -3.0298 0.00398975 -0.000383924 -0.00112757 
0.256905 -3.24618 -3.52864 0.0108964 -0.00185965 0.00461557 
-0.702291 -2.62313 -2.36312 -0.00363153 0.00110863 -0.00883005 
-8.55439 9.64414 -2.44074 0.00547888 -0.000153608 -0.00727268 
1.10408 -7.27255 -9.01541 -0.00271151 -0.00448921 -0.0122351 
1.50174 -8.76239 -8.4779 -0.0100221 0.0037681 0.0157352 
-8.85975 -4.74958 -5.45144 0.0115286 0.00408868 -0.00129086 
-1.44679 -7.96631 -7.02957 -0.0034925 0.0111649 0.000686898 
-5.6602 -0.769106 -8.77648 -0.00158468 -0.00841166 0.000732396 
-8.24172 -4.97747 -4.69905 0.00185925 -0.00649518 0.0034503 
-8.68724 -5.63209 -4.08832 -0.0173363 0.00813516 0.00509386 
-8.52341 8.65605 -2.29007 0.000907393 0.000488867 -0.00219426 
-7.2228 -8.63743 -6.17143 0.00387181 -0.00380907 -0.00125233 
-1.81632 -7.62309 -7.89308 0.00630077 -0.0018898 -0.00860908 
-4.29647 -1.99382 -7.58094 -0.00724025 -0.00205594 -0.0113875 
-6.10079 0.664181 -6.50153 0.010021 0.00666592 0.000650372 
2.99982 4.18346 -1.79223 0.00851959 -0.00334929 -0.00645145 
-3.61513 -3.0888 -5.79477 -0.00678178 -0.00276999 -0.0185126 
-5.91717 8.72411 -7.72394 -0.00411578 -0.0278688 0.018944 
-2.01456 -7.89339 -4.61838 0.00154034 0.0261772 -0.00779706 
8.65502 -8.66158 -5.06445 -0.00369159 0.000963201 -0.00229595 
8.70826 -9.57154 -4.65319 0.0173731 0.00290583 -0.000617697 
8.96749 -8.70583 -6.01335 0.0343469 0.0140819 0.0097697 
-0.415624 -8.10492 -4.87401 -0.00210459 0.0159228 -0.0218017 
-1.3289 -8.2409 -5.25799 -0.0077984 -0.00381278 -0.00131985 
-1.95213 -8.38657 -8.52446 -0.00343439 -0.01357 0.00766726 
-6.55434 -8.70761 -5.431 -0.000240731 -0.00339549 0.00249817 
-6.11433 -9.60502 -5.46309 -0.00496898 -0.00600132 0.00965172 
-0.0283227 -8.12628 8.27497 0.00219376 -0.000405342 -0.00478094 
0.126544 -7.88373 7.31727 -0.00401245 -0.00805026 -0.00767548 
0.758412 -8.63764 8.62075 0.00323958 6.32095e-05 -0.00646512 
1.76806 -7.79853 -8.48393 -0.0066668 0.00263846 -0.000225881 
9.30962 -7.22153 -4.21028 0.00346999 -0.00441332 0.0050351 
2.98272 -4.51524 -9.70462 -0.00684014 -0.00689954 0.00290983 
9.81057 -6.62849 -3.57993 -0.00360979 0.000272318 0.00623772 
9.19643 -5.92243 -3.22732 -0.0208179 -0.0295062 0.0355437 
0.944559 -3.38299 -6.27283 -0.00456023 0.00214581 0.00197982 
0.738278 -3.72537 -8.90045 -0.00225356 -0.00231569 0.00408882 
3.63661 -5.86612 -2.85057 0.00112028 0.00698635 -0.00894492 
5.9404 -9.65468 -8.20092 -0.00222144 0.00652831 0.000817158 
5.42656 -8.96163 -8.70655 -0.0120756 -0.00451989 -0.00415061 
6.16466 -9.30559 -7.29107 -0.0225075 0.00912518 0.00463014 
3.25839 -7.14473 -6.17017 -0.000532324 0.0122342 0.001068 
2.64676 -7.27307 -6.95084 0.00633245 -0.00579065 -0.00126437 
4.14739 -7.55571 -6.3721 0.0027247 0.0117612 0.0165301 
1.1818 -8.10268 -4.55405 -0.00288556 0.000572102 -0.00254946 
1.66361 -8.87097 -4.97547 -0.0288865 -0.00449671 -0.0230447 
1.57977 -7.24322 -4.87493 -0.000311642 -0.00383311 -0.0111183 
9.69492 -6.91473 -7.55036 0.00317747 0.000721884 -0.00214621 
9.03979 -6.63943 -8.25394 0.0134431 0.00955017 -0.00825262 
9.79996 -6.17552 -6.88514 0.00901926 0.00036538 -0.00267516 
6.68931 -2.6634 -3.02519 0.00460058 -0.00188558 0.00457166 
6.45529 -2.21756 -2.16121 0.0146233 -0.00360276 0.00815351 
7.35208 -2.10227 -3.52105 -0.00534705 0.00191465 -0.00467756 
6.17025 -1.07 -7.93 -0.000519775 0.00683042 -0.00442985 
4.66842 -1.92039 -5.11483 -0.00245596 0.0065676 -0.000148026 
5.443 -2.12705 -4.51707 -0.0154927 0.0134752 0.0189024 
4.25907 -2.77395 -5.43713 -0.000581499 0.00283632 0.00731661 
3.63802 -4.63447 -8.95872 0.00190455 -0.000858575 -0.00380974 
3.20606 -4.38403 -8.0923 0.0164535 0.0195361 -0.00249522 
2.35366 -4.49286 -2.67504 0.00370126 0.000901293 0.000524593 
1.51561 -5.03708 -2.63649 -0.0035128 0.0135165 0.0185511 
2.11923 -3.52737 -2.7885 0.0161207 0.00292054 -0.0080071 
0.380141 -0.769136 -6.47261 0.000135199 -0.00371722 0.00652595 
0.00866593 -0.498685 -7.36079 -0.017107 -0.00711009 0.012753 
3.49572 -4.12348 -6.05833 -0.00482253 -0.00470567 0.00347573 
2.60716 -3.66821 -6.11471 -0.00682023 -0.0078728 0.0099253 
3.36741 -5.06907 -5.75931 0.000575405 -0.00554676 0.0030423 
2.72928 0.103541 -5.35978 0.00200651 0.00455233 -0.0057557 
3.41896 -0.582921 -5.59023 0.00324216 0.00160154 0.00714999 
0.813884 -3.65402 -7.22649 -0.0254733 0.00696501 0.00350474 
6.74228 -5.44035 -3.37765 -0.00188499 -0.0032258 0.00513539 
6.00309 -5.99128 -2.99026 -0.00321526 -0.00772014 -0.00390547 
6.69271 -4.51119 -3.0113 -0.0104803 -0.00417555 0.0063555 
2.36881 1.26976 -2.72661 -0.00882641 0.00360609 0.00341284 
1.44779 0.901871 -2.5986 -0.0104774 -0.000453931 -0.019435 
2.76269 0.897394 -3.56697 0.0135657 0.00555415 0.0129751 
6.66449 -6.84815 -6.06044 0.00213108 -0.000531555 -0.0012301 
6.74788 -6.36622 -5.18821 -0.00313334 -0.00143458 -0.000275967 
7.19889 -7.69272 -6.02706 -0.00460361 -0.00452663 0.00382995 
7.52299 -2.75293 -9.51638 -0.0172837 -0.00540784 -0.00858863 
-0.563884 -5.39422 -2.56908 -0.00162385 -0.000770279 0.00237413 
-1.02471 -6.27045 -2.42812 -0.00757654 0.00421834 0.0134997 
-0.665311 -5.11401 -3.52364 0.00896133 -0.017147 -0.00360021 
4.2448 -6.52303 -3.29618 -0.00171903 -0.00100637 -0.000958137 
3.90772 -6.71771 -4.21731 0.0133796 0.0110485 -0.00904168 
5.14394 -9.43477 -2.80699 -0.00649532 0.00223582 0.000841576 
5.14485 -8.54513 -2.35032 -0.00483424 0.00231861 0.000685572 
1.85791 -0.14414 -5.78329 -0.000395195 -0.0108728 0.00838297 
3.37896 -7.71149 -8.88595 0.00163833 0.0169904 0.00593175 
4.86917 9.857 -2.15668 0.00260992 0.00143221 0.00379827 
2.06632 -9.75032 8.65787 -0.000433264 -0.00216993 -0.00175722 
5.81618 -0.601949 -7.12033 -0.000673738 -0.000924548 3.91697e-05 
5.76264 -1.24776 -6.35871 -0.00943812 -0.0104049 -0.00869595 
6.12412 1.18849 -6.76615 0.0102103 -0.00169074 -0.0110805 
2.96322 -9.3762 8.89367 0.000117543 0.00381296 -0.0133116 
-0.690691 -1.16375 10.2375 0.00152001 0.00819859 -0.021781 
0.207576 -4.32718 -9.49726 0.00738403 -0.00405164 -0.00273348 
-1.95248 0.00531632 -9.23943 0.00156454 0.00531006 0.000231986 
-2.05745 0.885786 -8.77709 0.00319697 0.00723274 -0.00306632 
4.33244 -7.86309 -9.14652 -0.00200467 0.000996669 0.0016154 
4.80291 -6.98341 -9.21607 0.0147281 -0.00733743 0.00820008 
5.08376 -4.71517 -8.07692 0.00526263 0.000983157 -0.00325252 
8.83699 -0.661095 -4.88059 -0.000995956 -0.0027462 -0.00277535 
-2.25485 9.86946 -5.68044 -0.00583913 0.0051283 0.00669054 
-0.500718 -0.293076 -3.39471 -0.00197188 0.0016598 0.00519491 
-6.28058 -0.0938554 -8.37752 -0.00278516 -0.0061407 -0.00503981 
-0.891135 0.420967 -3.97584 -0.0037999 -0.00284294 0.00083493 
-0.9046 1.28709 -3.47619 0.0193678 0.00615934 -0.0139565 
-6.21268 0.608665 -5.50936 0.00524649 0.00100037 -0.000152722 
-5.66141 -0.14594 -5.15344 -0.017564 -0.01783 -0.00495261 
2.08714 3.85574 -2.03639 0.00686885 -0.00267378 -0.0011965 
-4.25256 -2.31974 -5.74749 0.00375415 0.00521316 -0.00673217 
-3.73871 -1.46265 -5.71076 0.0152137 -0.00149614 -0.0113914 
-2.34974 0.249644 -5.11174 0.00314094 -0.00856676 0.000251233 
-6.37627 8.26409 -8.48395 -0.00493568 -0.00167216 0.00378738 
-7.36012 8.43537 -8.43192 -0.00652554 -0.0163657 0.0191238 
-8.45711 4.09221 -5.93957 -0.00407819 -0.00408888 -0.00013436 
-8.84085 3.40235 -5.32571 -0.00128103 0.00121914 0.0075966 
0.644064 9.80761 -8.35987 -0.00173864 -0.00261305 0.00200402 
-0.286773 9.44245 -8.3741 -0.00108457 -0.004621 0.0092347 
-6.05336 3.05733 -4.46798 0.000275662 0.00196931 0.00103216 
-6.73016 3.60589 -4.95892 0.00866982 0.0116913 0.000319493 
-6.13346 2.10057 -4.74761 -0.00354525 0.00541528 -0.00968311 
-2.68846 9.01997 -5.98101 0.000330159 0.00348829 0.00238095 
-2.12001 8.24235 -5.71238 0.00954658 0.00667802 -0.00790483 
-2.20751 9.21072 -8.57524 0.00093559 0.00463888 -0.00255448 
-2.47686 9.10935 -7.61754 0.00556261 0.0034704 -0.00137335 
-3.00959 9.44652 -9.12393 -0.000807888 0.0104393 0.00242319 
-0.829867 2.49711 -2.36532 -0.00201491 -0.00687044 -0.00522355 
-1.76979 2.77568 -2.56267 0.00283786 -0.00727867 -0.0288276 
-0.3408 3.25569 -1.93477 -0.0117787 -0.0050654 0.00267024 
-1.59678 6.38519 -5.77457 0.00160778 6.31685e-05 -0.00612264 
-1.499 5.91496 -6.65169 -0.000771282 0.00566486 -0.00940107 
-0.72585 6.80797 -5.52409 0.00102597 0.00242224 -0.00806776 
3.41625 8.79763 -6.24944 -0.015743 -0.0239635 0.0109127 
-3.78578 5.84198 -4.37872 -0.00380489 0.00642559 -0.00291353 
-3.49786 5.11191 -3.75897 -0.00289986 -0.00294332 -0.0144187 
-2.99944 6.15807 -4.90954 -0.00560791 0.0110525 -0.00283512 
-4.39251 5.95284 -7.52577 -0.000820884 -0.000620277 0.00337302 
-4.27473 6.05521 -6.53802 -0.0106994 -0.0132355 0.00585944 
-5.27263 6.3414 -7.79857 -0.00505799 -0.011155 0.00189235 
-3.35418 2.92006 -3.51277 -0.0013994 -0.0099833 -0.0030133 
-3.3891 2.67931 -4.48273 -0.0036081 -0.0153856 -0.00159059 
-4.26782 3.18088 -3.20095 -0.00260686 -0.0181975 0.000191578 
2.14106 2.89741 -2.31692 0.00790611 0.00353002 -0.0223894 
-4.79037 9.50492 9.72799 0.00073612 0.000793061 0.00311385 
-4.90647 9.22632 8.77463 0.00530866 -0.0171505 0.00780308 
-5.48451 9.05845 10.2926 0.00849583 -0.00153374 0.0107576 