LAMMPS (16 Jul 2018)
units real
atom_style full
timestep 2

dimension 3
boundary p p p

bond_style hybrid harmonic
angle_style hybrid harmonic
special_bonds lj 0.0 0.0 0.5 coul 0.0 0.0 0.5

read_data water.lmp
  orthogonal box = (-9.99433 -9.94614 -9.75334) to (10.0057 10.0539 10.2467)
  1 by 1 by 1 MPI processor grid
  reading atoms ...
  300 atoms
  reading velocities ...
  300 velocities
  scanning bonds ...
  2 = max bonds/atom
  scanning angles ...
  1 = max angles/atom
  reading bonds ...
  200 bonds
  reading angles ...
  100 angles
  2 = max # of 1-2 neighbors
  1 = max # of 1-3 neighbors
  1 = max # of 1-4 neighbors
  2 = max # of special neighbors

pair_style lj/cut/coul/long 15.0 15.0
pair_modify tail yes
kspace_style pppm 1e-8

pair_coeff 1 1   0.1554001   3.1655700
pair_coeff 2 2   0.0000000   0.0000000

pair_modify mix geometric

fix settle all shake 0.000001 100 0 t 1 2 a 1 2 3 4 5 6 7 8 9 10  11 12 13 14 15 16 17 18 19 20  21 22 23 24 25 26 27 28 29 30  31 32 33 34 35 36 37 38 39 40  41 42 43 44 45 46 47 48 49 50  51 52 53 54 55 56 57 58 59 60  61 62 63 64 65 66 67 68 69 70  71 72 73 74 75 76 77 78 79 80  81 82 83 84 85 86 87 88 89 90  91 92 93 94 95 96 97 98 99 100
  0 = # of size 2 clusters
  0 = # of size 3 clusters
  0 = # of size 4 clusters
  100 = # of frozen angles
fix 1 all nvt temp 1.0 308.0 100.0

run 100
PPPM initialization ...
  using 12-bit tables for long-range coulomb (../kspace.cpp:321)
WARNING: For better accuracy use 'pair_modify table 0' (../kspace.cpp:342)
  G vector (1/distance) = 0.260442
  grid = 45 45 45
  stencil order = 5
  estimated absolute RMS force accuracy = 1.12127e-05
  estimated relative force accuracy = 3.37668e-08
  using double precision FFTs
  3d grid and FFT values/proc = 157464 91125
Neighbor list info ...
  update every 1 steps, delay 10 steps, check yes
  max neighbors/atom: 2000, page size: 100000
  master list distance cutoff = 17
  ghost atom cutoff = 17
  binsize = 8.5, bins = 3 3 3
  1 neighbor lists, perpetual/occasional/extra = 1 0 0
  (1) pair lj/cut/coul/long, perpetual
      attributes: half, newton on
      pair build: half/bin/newton
      stencil: half/bin/3d/newton
      bin: standard
Per MPI rank memory allocation (min/avg/max) = 22.07 | 22.07 | 22.07 Mbytes
Step Temp E_pair E_mol TotEng Press 
       0            0   -970.78082            0   -970.78082   -651.37695 
     100    165.60325   -1111.3747            0   -1013.1419   -320.65995 
Loop time of 2.44019 on 1 procs for 100 steps with 300 atoms

Performance: 7.081 ns/day, 3.389 hours/ns, 40.980 timesteps/s
100.0% CPU use with 1 MPI tasks x no OpenMP threads

MPI task timing breakdown:
Section |  min time  |  avg time  |  max time  |%varavg| %total
---------------------------------------------------------------
Pair    | 0.19457    | 0.19457    | 0.19457    |   0.0 |  7.97
Bond    | 7.8201e-05 | 7.8201e-05 | 7.8201e-05 |   0.0 |  0.00
Kspace  | 2.228      | 2.228      | 2.228      |   0.0 | 91.30
Neigh   | 0.0090802  | 0.0090802  | 0.0090802  |   0.0 |  0.37
Comm    | 0.0041213  | 0.0041213  | 0.0041213  |   0.0 |  0.17
Output  | 2.5988e-05 | 2.5988e-05 | 2.5988e-05 |   0.0 |  0.00
Modify  | 0.0035777  | 0.0035777  | 0.0035777  |   0.0 |  0.15
Other   |            | 0.0007479  |            |       |  0.03

Nlocal:    300 ave 300 max 300 min
Histogram: 1 0 0 0 0 0 0 0 0 0
Nghost:    5361 ave 5361 max 5361 min
Histogram: 1 0 0 0 0 0 0 0 0 0
Neighs:    105490 ave 105490 max 105490 min
Histogram: 1 0 0 0 0 0 0 0 0 0

Total # of neighbors = 105490
Ave neighs/atom = 351.633
Ave special neighs/atom = 2
Neighbor list builds = 3
Dangerous builds = 0

fix 1 all nvt temp 308.0 308.0 100.0

run 300
PPPM initialization ...
  using 12-bit tables for long-range coulomb (../kspace.cpp:321)
WARNING: For better accuracy use 'pair_modify table 0' (../kspace.cpp:342)
  G vector (1/distance) = 0.260442
  grid = 45 45 45
  stencil order = 5
  estimated absolute RMS force accuracy = 1.12127e-05
  estimated relative force accuracy = 3.37668e-08
  using double precision FFTs
  3d grid and FFT values/proc = 157464 91125
Per MPI rank memory allocation (min/avg/max) = 22.07 | 22.07 | 22.07 Mbytes
Step Temp E_pair E_mol TotEng Press 
     100    165.60325   -1111.3747            0   -1013.1419   -319.93887 
     400    336.53127   -993.70201            0   -794.07799   -684.72682 
Loop time of 7.35333 on 1 procs for 300 steps with 300 atoms

Performance: 7.050 ns/day, 3.404 hours/ns, 40.798 timesteps/s
100.0% CPU use with 1 MPI tasks x no OpenMP threads

MPI task timing breakdown:
Section |  min time  |  avg time  |  max time  |%varavg| %total
---------------------------------------------------------------
Pair    | 0.5924     | 0.5924     | 0.5924     |   0.0 |  8.06
Bond    | 0.0002079  | 0.0002079  | 0.0002079  |   0.0 |  0.00
Kspace  | 6.6815     | 6.6815     | 6.6815     |   0.0 | 90.86
Neigh   | 0.053054   | 0.053054   | 0.053054   |   0.0 |  0.72
Comm    | 0.013065   | 0.013065   | 0.013065   |   0.0 |  0.18
Output  | 2.4796e-05 | 2.4796e-05 | 2.4796e-05 |   0.0 |  0.00
Modify  | 0.010947   | 0.010947   | 0.010947   |   0.0 |  0.15
Other   |            | 0.002159   |            |       |  0.03

Nlocal:    300 ave 300 max 300 min
Histogram: 1 0 0 0 0 0 0 0 0 0
Nghost:    5339 ave 5339 max 5339 min
Histogram: 1 0 0 0 0 0 0 0 0 0
Neighs:    106431 ave 106431 max 106431 min
Histogram: 1 0 0 0 0 0 0 0 0 0

Total # of neighbors = 106431
Ave neighs/atom = 354.77
Ave special neighs/atom = 2
Neighbor list builds = 17
Dangerous builds = 1

thermo_style multi
thermo 100
dump myDump all custom 1000 dump.atom x y z vx vy vz

run 20000
PPPM initialization ...
  using 12-bit tables for long-range coulomb (../kspace.cpp:321)
WARNING: For better accuracy use 'pair_modify table 0' (../kspace.cpp:342)
  G vector (1/distance) = 0.260442
  grid = 45 45 45
  stencil order = 5
  estimated absolute RMS force accuracy = 1.12127e-05
  estimated relative force accuracy = 3.37668e-08
  using double precision FFTs
  3d grid and FFT values/proc = 157464 91125
Per MPI rank memory allocation (min/avg/max) = 22.07 | 22.07 | 22.07 Mbytes
---------------- Step      400 ----- CPU =      0.0000 (sec) ----------------
TotEng   =      -794.0780 KinEng   =       199.6240 Temp     =       336.5313 
PotEng   =      -993.7020 E_bond   =         0.0000 E_angle  =         0.0000 
E_dihed  =         0.0000 E_impro  =         0.0000 E_vdwl   =       188.7238 
E_coul   =      4066.8341 E_long   =     -5249.2599 Press    =      -684.2177 
---------------- Step      500 ----- CPU =      2.4917 (sec) ----------------
TotEng   =      -788.9396 KinEng   =       178.5975 Temp     =       301.0843 
PotEng   =      -967.5371 E_bond   =         0.0000 E_angle  =         0.0000 
E_dihed  =         0.0000 E_impro  =         0.0000 E_vdwl   =       179.2056 
E_coul   =      4102.9569 E_long   =     -5249.6997 Press    =      -850.0640 
---------------- Step      600 ----- CPU =      4.9681 (sec) ----------------
TotEng   =      -790.5886 KinEng   =       184.9169 Temp     =       311.7376 
PotEng   =      -975.5055 E_bond   =         0.0000 E_angle  =         0.0000 
E_dihed  =         0.0000 E_impro  =         0.0000 E_vdwl   =       205.0131 
E_coul   =      4068.3211 E_long   =     -5248.8398 Press    =      -101.1858 
---------------- Step      700 ----- CPU =      7.5492 (sec) ----------------
TotEng   =      -793.6727 KinEng   =       190.2867 Temp     =       320.7902 
PotEng   =      -983.9594 E_bond   =         0.0000 E_angle  =         0.0000 
E_dihed  =         0.0000 E_impro  =         0.0000 E_vdwl   =       181.6926 
E_coul   =      4084.1892 E_long   =     -5249.8412 Press    =      -783.2306 
---------------- Step      800 ----- CPU =     10.2750 (sec) ----------------
TotEng   =      -773.9388 KinEng   =       187.0851 Temp     =       315.3928 
PotEng   =      -961.0238 E_bond   =         0.0000 E_angle  =         0.0000 
E_dihed  =         0.0000 E_impro  =         0.0000 E_vdwl   =       195.0336 
E_coul   =      4093.3173 E_long   =     -5249.3748 Press    =      -159.2285 
---------------- Step      900 ----- CPU =     12.9322 (sec) ----------------
TotEng   =      -751.3943 KinEng   =       204.9796 Temp     =       345.5598 
PotEng   =      -956.3739 E_bond   =         0.0000 E_angle  =         0.0000 
E_dihed  =         0.0000 E_impro  =         0.0000 E_vdwl   =       162.9579 
E_coul   =      4130.3318 E_long   =     -5249.6636 Press    =      -967.1224 
---------------- Step     1000 ----- CPU =     15.5923 (sec) ----------------
TotEng   =      -794.0743 KinEng   =       184.9749 Temp     =       311.8354 
PotEng   =      -979.0492 E_bond   =         0.0000 E_angle  =         0.0000 
E_dihed  =         0.0000 E_impro  =         0.0000 E_vdwl   =       203.6278 
E_coul   =      4066.5463 E_long   =     -5249.2233 Press    =      -197.9850 
---------------- Step     1100 ----- CPU =     18.1990 (sec) ----------------
TotEng   =      -782.1175 KinEng   =       188.1974 Temp     =       317.2680 
PotEng   =      -970.3149 E_bond   =         0.0000 E_angle  =         0.0000 
E_dihed  =         0.0000 E_impro  =         0.0000 E_vdwl   =       173.9508 
E_coul   =      4106.1296 E_long   =     -5250.3953 Press    =     -1051.6927 
---------------- Step     1200 ----- CPU =     20.7086 (sec) ----------------
TotEng   =      -769.6310 KinEng   =       191.7544 Temp     =       323.2645 
PotEng   =      -961.3854 E_bond   =         0.0000 E_angle  =         0.0000 
E_dihed  =         0.0000 E_impro  =         0.0000 E_vdwl   =       204.6751 
E_coul   =      4081.0781 E_long   =     -5247.1386 Press    =       156.2528 
---------------- Step     1300 ----- CPU =     23.2908 (sec) ----------------
TotEng   =      -807.9460 KinEng   =       196.8609 Temp     =       331.8731 
PotEng   =     -1004.8069 E_bond   =         0.0000 E_angle  =         0.0000 
E_dihed  =         0.0000 E_impro  =         0.0000 E_vdwl   =       184.4838 
E_coul   =      4058.9321 E_long   =     -5248.2229 Press    =      -937.3626 
---------------- Step     1400 ----- CPU =     25.7831 (sec) ----------------
TotEng   =      -829.7977 KinEng   =       167.4505 Temp     =       282.2923 
PotEng   =      -997.2482 E_bond   =         0.0000 E_angle  =         0.0000 
E_dihed  =         0.0000 E_impro  =         0.0000 E_vdwl   =       193.3173 
E_coul   =      4058.5391 E_long   =     -5249.1047 Press    =      -583.9115 
---------------- Step     1500 ----- CPU =     28.3230 (sec) ----------------
TotEng   =      -796.6539 KinEng   =       200.1037 Temp     =       337.3400 
PotEng   =      -996.7576 E_bond   =         0.0000 E_angle  =         0.0000 
E_dihed  =         0.0000 E_impro  =         0.0000 E_vdwl   =       195.9752 
E_coul   =      4058.1302 E_long   =     -5250.8631 Press    =      -343.4697 
---------------- Step     1600 ----- CPU =     30.8063 (sec) ----------------
TotEng   =      -790.3379 KinEng   =       191.9830 Temp     =       323.6498 
PotEng   =      -982.3209 E_bond   =         0.0000 E_angle  =         0.0000 
E_dihed  =         0.0000 E_impro  =         0.0000 E_vdwl   =       179.3428 
E_coul   =      4086.1860 E_long   =     -5247.8497 Press    =      -622.6259 
---------------- Step     1700 ----- CPU =     33.2976 (sec) ----------------
TotEng   =      -829.8471 KinEng   =       169.8743 Temp     =       286.3785 
PotEng   =      -999.7215 E_bond   =         0.0000 E_angle  =         0.0000 
E_dihed  =         0.0000 E_impro  =         0.0000 E_vdwl   =       192.8632 
E_coul   =      4056.5576 E_long   =     -5249.1423 Press    =      -631.8660 
---------------- Step     1800 ----- CPU =     35.8244 (sec) ----------------
TotEng   =      -818.6983 KinEng   =       193.6605 Temp     =       326.4778 
PotEng   =     -1012.3588 E_bond   =         0.0000 E_angle  =         0.0000 
E_dihed  =         0.0000 E_impro  =         0.0000 E_vdwl   =       217.2046 
E_coul   =      4021.7701 E_long   =     -5251.3335 Press    =      -177.0338 
---------------- Step     1900 ----- CPU =     38.3510 (sec) ----------------
TotEng   =      -817.6563 KinEng   =       172.9924 Temp     =       291.6350 
PotEng   =      -990.6488 E_bond   =         0.0000 E_angle  =         0.0000 
E_dihed  =         0.0000 E_impro  =         0.0000 E_vdwl   =       208.8406 
E_coul   =      4048.1765 E_long   =     -5247.6660 Press    =       -58.4486 
---------------- Step     2000 ----- CPU =     40.8471 (sec) ----------------
TotEng   =      -810.5905 KinEng   =       171.8925 Temp     =       289.7808 
PotEng   =      -982.4830 E_bond   =         0.0000 E_angle  =         0.0000 
E_dihed  =         0.0000 E_impro  =         0.0000 E_vdwl   =       194.1762 
E_coul   =      4070.8235 E_long   =     -5247.4827 Press    =      -261.9525 
---------------- Step     2100 ----- CPU =     43.3428 (sec) ----------------
TotEng   =      -821.8324 KinEng   =       180.2575 Temp     =       303.8826 
PotEng   =     -1002.0898 E_bond   =         0.0000 E_angle  =         0.0000 
E_dihed  =         0.0000 E_impro  =         0.0000 E_vdwl   =       190.1167 
E_coul   =      4059.6935 E_long   =     -5251.9000 Press    =      -668.0855 
---------------- Step     2200 ----- CPU =     45.8163 (sec) ----------------
TotEng   =      -838.2793 KinEng   =       167.5641 Temp     =       282.4838 
PotEng   =     -1005.8434 E_bond   =         0.0000 E_angle  =         0.0000 
E_dihed  =         0.0000 E_impro  =         0.0000 E_vdwl   =       190.1391 
E_coul   =      4052.7312 E_long   =     -5248.7137 Press    =      -709.6083 
---------------- Step     2300 ----- CPU =     48.3173 (sec) ----------------
TotEng   =      -806.2111 KinEng   =       187.4540 Temp     =       316.0147 
PotEng   =      -993.6650 E_bond   =         0.0000 E_angle  =         0.0000 
E_dihed  =         0.0000 E_impro  =         0.0000 E_vdwl   =       206.0392 
E_coul   =      4051.7618 E_long   =     -5251.4660 Press    =       -76.2551 
---------------- Step     2400 ----- CPU =     50.8200 (sec) ----------------
TotEng   =      -802.0075 KinEng   =       177.9808 Temp     =       300.0445 
PotEng   =      -979.9882 E_bond   =         0.0000 E_angle  =         0.0000 
E_dihed  =         0.0000 E_impro  =         0.0000 E_vdwl   =       193.1671 
E_coul   =      4077.2349 E_long   =     -5250.3902 Press    =      -361.7965 
---------------- Step     2500 ----- CPU =     53.3331 (sec) ----------------
TotEng   =      -831.7503 KinEng   =       184.5259 Temp     =       311.0785 
PotEng   =     -1016.2762 E_bond   =         0.0000 E_angle  =         0.0000 
E_dihed  =         0.0000 E_impro  =         0.0000 E_vdwl   =       200.7336 
E_coul   =      4032.9540 E_long   =     -5249.9638 Press    =      -344.3450 
---------------- Step     2600 ----- CPU =     55.8442 (sec) ----------------
TotEng   =      -799.7050 KinEng   =       189.3203 Temp     =       319.1609 
PotEng   =      -989.0253 E_bond   =         0.0000 E_angle  =         0.0000 
E_dihed  =         0.0000 E_impro  =         0.0000 E_vdwl   =       195.5873 
E_coul   =      4065.6481 E_long   =     -5250.2606 Press    =      -309.1592 
---------------- Step     2700 ----- CPU =     58.3506 (sec) ----------------
TotEng   =      -786.8931 KinEng   =       190.1796 Temp     =       320.6096 
PotEng   =      -977.0727 E_bond   =         0.0000 E_angle  =         0.0000 
E_dihed  =         0.0000 E_impro  =         0.0000 E_vdwl   =       178.2137 
E_coul   =      4095.4716 E_long   =     -5250.7580 Press    =      -746.8035 
---------------- Step     2800 ----- CPU =     60.8370 (sec) ----------------
TotEng   =      -812.9213 KinEng   =       171.7263 Temp     =       289.5007 
PotEng   =      -984.6476 E_bond   =         0.0000 E_angle  =         0.0000 
E_dihed  =         0.0000 E_impro  =         0.0000 E_vdwl   =       216.2704 
E_coul   =      4050.5580 E_long   =     -5251.4761 Press    =       118.1731 
---------------- Step     2900 ----- CPU =     63.3244 (sec) ----------------
TotEng   =      -816.9551 KinEng   =       178.6768 Temp     =       301.2180 
PotEng   =      -995.6320 E_bond   =         0.0000 E_angle  =         0.0000 
E_dihed  =         0.0000 E_impro  =         0.0000 E_vdwl   =       228.2182 
E_coul   =      4026.2185 E_long   =     -5250.0686 Press    =       293.1401 
---------------- Step     3000 ----- CPU =     65.8108 (sec) ----------------
TotEng   =      -784.3180 KinEng   =       189.3572 Temp     =       319.2233 
PotEng   =      -973.6752 E_bond   =         0.0000 E_angle  =         0.0000 
E_dihed  =         0.0000 E_impro  =         0.0000 E_vdwl   =       175.4637 
E_coul   =      4102.6352 E_long   =     -5251.7741 Press    =      -786.9168 
---------------- Step     3100 ----- CPU =     68.3842 (sec) ----------------
TotEng   =      -787.1695 KinEng   =       171.5900 Temp     =       289.2708 
PotEng   =      -958.7595 E_bond   =         0.0000 E_angle  =         0.0000 
E_dihed  =         0.0000 E_impro  =         0.0000 E_vdwl   =       211.7228 
E_coul   =      4077.2342 E_long   =     -5247.7165 Press    =       400.8367 
---------------- Step     3200 ----- CPU =     70.9520 (sec) ----------------
TotEng   =      -824.5713 KinEng   =       183.4511 Temp     =       309.2666 
PotEng   =     -1008.0225 E_bond   =         0.0000 E_angle  =         0.0000 
E_dihed  =         0.0000 E_impro  =         0.0000 E_vdwl   =       193.0818 
E_coul   =      4048.7174 E_long   =     -5249.8217 Press    =      -752.4183 
---------------- Step     3300 ----- CPU =     73.4753 (sec) ----------------
TotEng   =      -807.9606 KinEng   =       182.3426 Temp     =       307.3978 
PotEng   =      -990.3032 E_bond   =         0.0000 E_angle  =         0.0000 
E_dihed  =         0.0000 E_impro  =         0.0000 E_vdwl   =       204.0818 
E_coul   =      4056.7581 E_long   =     -5251.1431 Press    =      -233.6493 
---------------- Step     3400 ----- CPU =     75.9829 (sec) ----------------
TotEng   =      -801.8817 KinEng   =       189.8426 Temp     =       320.0415 
PotEng   =      -991.7243 E_bond   =         0.0000 E_angle  =         0.0000 
E_dihed  =         0.0000 E_impro  =         0.0000 E_vdwl   =       211.2938 
E_coul   =      4047.1708 E_long   =     -5250.1889 Press    =      -103.1262 
---------------- Step     3500 ----- CPU =     78.5006 (sec) ----------------
TotEng   =      -788.6852 KinEng   =       176.6803 Temp     =       297.8522 
PotEng   =      -965.3655 E_bond   =         0.0000 E_angle  =         0.0000 
E_dihed  =         0.0000 E_impro  =         0.0000 E_vdwl   =       178.8098 
E_coul   =      4104.9194 E_long   =     -5249.0946 Press    =      -870.4372 
---------------- Step     3600 ----- CPU =     81.0014 (sec) ----------------
TotEng   =      -760.6673 KinEng   =       191.0860 Temp     =       322.1376 
PotEng   =      -951.7532 E_bond   =         0.0000 E_angle  =         0.0000 
E_dihed  =         0.0000 E_impro  =         0.0000 E_vdwl   =       168.8759 
E_coul   =      4128.2326 E_long   =     -5248.8617 Press    =      -865.5764 
---------------- Step     3700 ----- CPU =     83.5085 (sec) ----------------
TotEng   =      -797.5796 KinEng   =       169.7755 Temp     =       286.2118 
PotEng   =      -967.3550 E_bond   =         0.0000 E_angle  =         0.0000 
E_dihed  =         0.0000 E_impro  =         0.0000 E_vdwl   =       181.2300 
E_coul   =      4100.5956 E_long   =     -5249.1806 Press    =      -805.6977 
---------------- Step     3800 ----- CPU =     86.0313 (sec) ----------------
TotEng   =      -787.5884 KinEng   =       177.3935 Temp     =       299.0545 
PotEng   =      -964.9820 E_bond   =         0.0000 E_angle  =         0.0000 
E_dihed  =         0.0000 E_impro  =         0.0000 E_vdwl   =       212.2572 
E_coul   =      4069.6500 E_long   =     -5246.8891 Press    =       288.2304 
---------------- Step     3900 ----- CPU =     88.5826 (sec) ----------------
TotEng   =      -792.0725 KinEng   =       180.3541 Temp     =       304.0456 
PotEng   =      -972.4266 E_bond   =         0.0000 E_angle  =         0.0000 
E_dihed  =         0.0000 E_impro  =         0.0000 E_vdwl   =       180.4521 
E_coul   =      4094.8186 E_long   =     -5247.6973 Press    =      -744.5767 
---------------- Step     4000 ----- CPU =     91.0984 (sec) ----------------
TotEng   =      -828.0235 KinEng   =       168.1890 Temp     =       283.5373 
PotEng   =      -996.2125 E_bond   =         0.0000 E_angle  =         0.0000 
E_dihed  =         0.0000 E_impro  =         0.0000 E_vdwl   =       194.6541 
E_coul   =      4057.1134 E_long   =     -5247.9800 Press    =      -414.4229 
---------------- Step     4100 ----- CPU =     93.5907 (sec) ----------------
TotEng   =      -812.7567 KinEng   =       176.9031 Temp     =       298.2278 
PotEng   =      -989.6598 E_bond   =         0.0000 E_angle  =         0.0000 
E_dihed  =         0.0000 E_impro  =         0.0000 E_vdwl   =       213.6086 
E_coul   =      4044.7465 E_long   =     -5248.0150 Press    =        48.1901 
---------------- Step     4200 ----- CPU =     96.0715 (sec) ----------------
TotEng   =      -784.4857 KinEng   =       185.2464 Temp     =       312.2932 
PotEng   =      -969.7322 E_bond   =         0.0000 E_angle  =         0.0000 
E_dihed  =         0.0000 E_impro  =         0.0000 E_vdwl   =       190.4375 
E_coul   =      4088.4010 E_long   =     -5248.5706 Press    =      -400.6409 
---------------- Step     4300 ----- CPU =     98.5902 (sec) ----------------
TotEng   =      -819.2177 KinEng   =       172.0641 Temp     =       290.0700 
PotEng   =      -991.2818 E_bond   =         0.0000 E_angle  =         0.0000 
E_dihed  =         0.0000 E_impro  =         0.0000 E_vdwl   =       218.4757 
E_coul   =      4039.8730 E_long   =     -5249.6304 Press    =       312.2348 
---------------- Step     4400 ----- CPU =    101.0956 (sec) ----------------
TotEng   =      -812.3815 KinEng   =       185.0071 Temp     =       311.8897 
PotEng   =      -997.3886 E_bond   =         0.0000 E_angle  =         0.0000 
E_dihed  =         0.0000 E_impro  =         0.0000 E_vdwl   =       198.3142 
E_coul   =      4055.1826 E_long   =     -5250.8855 Press    =      -366.8833 
---------------- Step     4500 ----- CPU =    103.5958 (sec) ----------------
TotEng   =      -778.6472 KinEng   =       195.1684 Temp     =       329.0199 
PotEng   =      -973.8156 E_bond   =         0.0000 E_angle  =         0.0000 
E_dihed  =         0.0000 E_impro  =         0.0000 E_vdwl   =       169.6783 
E_coul   =      4105.8645 E_long   =     -5249.3584 Press    =      -781.0247 
---------------- Step     4600 ----- CPU =    106.1116 (sec) ----------------
TotEng   =      -767.0506 KinEng   =       184.6780 Temp     =       311.3349 
PotEng   =      -951.7286 E_bond   =         0.0000 E_angle  =         0.0000 
E_dihed  =         0.0000 E_impro  =         0.0000 E_vdwl   =       184.5534 
E_coul   =      4113.2635 E_long   =     -5249.5456 Press    =      -119.8109 
---------------- Step     4700 ----- CPU =    108.6554 (sec) ----------------
TotEng   =      -784.9780 KinEng   =       181.5501 Temp     =       306.0617 
PotEng   =      -966.5280 E_bond   =         0.0000 E_angle  =         0.0000 
E_dihed  =         0.0000 E_impro  =         0.0000 E_vdwl   =       174.7802 
E_coul   =      4108.6539 E_long   =     -5249.9622 Press    =      -855.7741 
---------------- Step     4800 ----- CPU =    111.1791 (sec) ----------------
TotEng   =      -751.9288 KinEng   =       209.2668 Temp     =       352.7874 
PotEng   =      -961.1956 E_bond   =         0.0000 E_angle  =         0.0000 
E_dihed  =         0.0000 E_impro  =         0.0000 E_vdwl   =       166.7612 
E_coul   =      4123.2770 E_long   =     -5251.2338 Press    =      -946.7587 
---------------- Step     4900 ----- CPU =    113.7023 (sec) ----------------
TotEng   =      -774.7868 KinEng   =       183.8907 Temp     =       310.0076 
PotEng   =      -958.6774 E_bond   =         0.0000 E_angle  =         0.0000 
E_dihed  =         0.0000 E_impro  =         0.0000 E_vdwl   =       168.1787 
E_coul   =      4120.7094 E_long   =     -5247.5655 Press    =      -882.1959 
---------------- Step     5000 ----- CPU =    116.2914 (sec) ----------------
TotEng   =      -790.3892 KinEng   =       182.1800 Temp     =       307.1237 
PotEng   =      -972.5692 E_bond   =         0.0000 E_angle  =         0.0000 
E_dihed  =         0.0000 E_impro  =         0.0000 E_vdwl   =       187.1410 
E_coul   =      4089.5766 E_long   =     -5249.2869 Press    =      -546.8358 
---------------- Step     5100 ----- CPU =    118.8063 (sec) ----------------
TotEng   =      -809.6730 KinEng   =       171.8310 Temp     =       289.6771 
PotEng   =      -981.5040 E_bond   =         0.0000 E_angle  =         0.0000 
E_dihed  =         0.0000 E_impro  =         0.0000 E_vdwl   =       180.3801 
E_coul   =      4088.0586 E_long   =     -5249.9426 Press    =      -723.6384 
---------------- Step     5200 ----- CPU =    121.3073 (sec) ----------------
TotEng   =      -814.9543 KinEng   =       186.6880 Temp     =       314.7234 
PotEng   =     -1001.6423 E_bond   =         0.0000 E_angle  =         0.0000 
E_dihed  =         0.0000 E_impro  =         0.0000 E_vdwl   =       200.4790 
E_coul   =      4049.4999 E_long   =     -5251.6213 Press    =      -361.8645 
---------------- Step     5300 ----- CPU =    123.8189 (sec) ----------------
TotEng   =      -837.0887 KinEng   =       169.5095 Temp     =       285.7634 
PotEng   =     -1006.5982 E_bond   =         0.0000 E_angle  =         0.0000 
E_dihed  =         0.0000 E_impro  =         0.0000 E_vdwl   =       181.1061 
E_coul   =      4055.5763 E_long   =     -5243.2806 Press    =      -840.2660 
---------------- Step     5400 ----- CPU =    126.3777 (sec) ----------------
TotEng   =      -802.5407 KinEng   =       194.0053 Temp     =       327.0590 
PotEng   =      -996.5460 E_bond   =         0.0000 E_angle  =         0.0000 
E_dihed  =         0.0000 E_impro  =         0.0000 E_vdwl   =       205.2464 
E_coul   =      4044.4638 E_long   =     -5246.2562 Press    =      -142.6253 
---------------- Step     5500 ----- CPU =    128.9054 (sec) ----------------
TotEng   =      -803.1563 KinEng   =       184.1193 Temp     =       310.3930 
PotEng   =      -987.2757 E_bond   =         0.0000 E_angle  =         0.0000 
E_dihed  =         0.0000 E_impro  =         0.0000 E_vdwl   =       223.5403 
E_coul   =      4038.9490 E_long   =     -5249.7650 Press    =       461.6788 
---------------- Step     5600 ----- CPU =    131.4286 (sec) ----------------
TotEng   =      -787.9915 KinEng   =       179.0724 Temp     =       301.8848 
PotEng   =      -967.0639 E_bond   =         0.0000 E_angle  =         0.0000 
E_dihed  =         0.0000 E_impro  =         0.0000 E_vdwl   =       189.2806 
E_coul   =      4090.3409 E_long   =     -5246.6854 Press    =      -196.4759 
---------------- Step     5700 ----- CPU =    134.1096 (sec) ----------------
TotEng   =      -811.1286 KinEng   =       181.9699 Temp     =       306.7695 
PotEng   =      -993.0986 E_bond   =         0.0000 E_angle  =         0.0000 
E_dihed  =         0.0000 E_impro  =         0.0000 E_vdwl   =       203.2306 
E_coul   =      4055.1652 E_long   =     -5251.4944 Press    =      -185.0933 
---------------- Step     5800 ----- CPU =    136.7665 (sec) ----------------
TotEng   =      -805.9557 KinEng   =       189.7817 Temp     =       319.9388 
PotEng   =      -995.7374 E_bond   =         0.0000 E_angle  =         0.0000 
E_dihed  =         0.0000 E_impro  =         0.0000 E_vdwl   =       196.0894 
E_coul   =      4059.0233 E_long   =     -5250.8501 Press    =      -408.9625 
---------------- Step     5900 ----- CPU =    139.4225 (sec) ----------------
TotEng   =      -793.3874 KinEng   =       189.3358 Temp     =       319.1871 
PotEng   =      -982.7232 E_bond   =         0.0000 E_angle  =         0.0000 
E_dihed  =         0.0000 E_impro  =         0.0000 E_vdwl   =       178.4258 
E_coul   =      4086.8268 E_long   =     -5247.9758 Press    =      -697.5213 
---------------- Step     6000 ----- CPU =    142.0355 (sec) ----------------
TotEng   =      -813.7477 KinEng   =       173.8716 Temp     =       293.1172 
PotEng   =      -987.6193 E_bond   =         0.0000 E_angle  =         0.0000 
E_dihed  =         0.0000 E_impro  =         0.0000 E_vdwl   =       211.4244 
E_coul   =      4052.2437 E_long   =     -5251.2875 Press    =       123.5303 
---------------- Step     6100 ----- CPU =    144.6882 (sec) ----------------
TotEng   =      -818.5922 KinEng   =       176.7852 Temp     =       298.0290 
PotEng   =      -995.3774 E_bond   =         0.0000 E_angle  =         0.0000 
E_dihed  =         0.0000 E_impro  =         0.0000 E_vdwl   =       225.3872 
E_coul   =      4029.8157 E_long   =     -5250.5802 Press    =       310.4539 
---------------- Step     6200 ----- CPU =    147.3528 (sec) ----------------
TotEng   =      -800.5315 KinEng   =       182.0172 Temp     =       306.8492 
PotEng   =      -982.5487 E_bond   =         0.0000 E_angle  =         0.0000 
E_dihed  =         0.0000 E_impro  =         0.0000 E_vdwl   =       194.9586 
E_coul   =      4070.6214 E_long   =     -5248.1288 Press    =      -480.8495 
---------------- Step     6300 ----- CPU =    149.9702 (sec) ----------------
TotEng   =      -782.0125 KinEng   =       177.8121 Temp     =       299.7602 
PotEng   =      -959.8246 E_bond   =         0.0000 E_angle  =         0.0000 
E_dihed  =         0.0000 E_impro  =         0.0000 E_vdwl   =       192.9040 
E_coul   =      4095.2180 E_long   =     -5247.9467 Press    =      -253.3256 
---------------- Step     6400 ----- CPU =    152.6233 (sec) ----------------
TotEng   =      -771.2007 KinEng   =       171.2661 Temp     =       288.7247 
PotEng   =      -942.4668 E_bond   =         0.0000 E_angle  =         0.0000 
E_dihed  =         0.0000 E_impro  =         0.0000 E_vdwl   =       179.6012 
E_coul   =      4123.7004 E_long   =     -5245.7683 Press    =      -434.0476 
---------------- Step     6500 ----- CPU =    155.2797 (sec) ----------------
TotEng   =      -796.4902 KinEng   =       189.2131 Temp     =       318.9803 
PotEng   =      -985.7033 E_bond   =         0.0000 E_angle  =         0.0000 
E_dihed  =         0.0000 E_impro  =         0.0000 E_vdwl   =       209.8212 
E_coul   =      4052.7933 E_long   =     -5248.3178 Press    =       -41.3652 
---------------- Step     6600 ----- CPU =    157.8906 (sec) ----------------
TotEng   =      -821.0435 KinEng   =       164.6308 Temp     =       277.5388 
PotEng   =      -985.6743 E_bond   =         0.0000 E_angle  =         0.0000 
E_dihed  =         0.0000 E_impro  =         0.0000 E_vdwl   =       189.9156 
E_coul   =      4072.1552 E_long   =     -5247.7451 Press    =      -595.9705 
---------------- Step     6700 ----- CPU =    160.5191 (sec) ----------------
TotEng   =      -787.4642 KinEng   =       181.5530 Temp     =       306.0667 
PotEng   =      -969.0172 E_bond   =         0.0000 E_angle  =         0.0000 
E_dihed  =         0.0000 E_impro  =         0.0000 E_vdwl   =       185.5557 
E_coul   =      4096.0788 E_long   =     -5250.6517 Press    =      -557.5141 
---------------- Step     6800 ----- CPU =    163.1838 (sec) ----------------
TotEng   =      -785.0447 KinEng   =       189.5058 Temp     =       319.4737 
PotEng   =      -974.5505 E_bond   =         0.0000 E_angle  =         0.0000 
E_dihed  =         0.0000 E_impro  =         0.0000 E_vdwl   =       198.5312 
E_coul   =      4076.9233 E_long   =     -5250.0050 Press    =      -123.9018 
---------------- Step     6900 ----- CPU =    165.8097 (sec) ----------------
TotEng   =      -802.1510 KinEng   =       181.1910 Temp     =       305.4565 
PotEng   =      -983.3420 E_bond   =         0.0000 E_angle  =         0.0000 
E_dihed  =         0.0000 E_impro  =         0.0000 E_vdwl   =       193.4949 
E_coul   =      4072.4345 E_long   =     -5249.2714 Press    =      -402.8014 
---------------- Step     7000 ----- CPU =    168.3866 (sec) ----------------
TotEng   =      -784.1012 KinEng   =       188.1203 Temp     =       317.1380 
PotEng   =      -972.2215 E_bond   =         0.0000 E_angle  =         0.0000 
E_dihed  =         0.0000 E_impro  =         0.0000 E_vdwl   =       200.1183 
E_coul   =      4074.3663 E_long   =     -5246.7060 Press    =      -175.8595 
---------------- Step     7100 ----- CPU =    170.9229 (sec) ----------------
TotEng   =      -752.9136 KinEng   =       209.9122 Temp     =       353.8753 
PotEng   =      -962.8258 E_bond   =         0.0000 E_angle  =         0.0000 
E_dihed  =         0.0000 E_impro  =         0.0000 E_vdwl   =       171.9472 
E_coul   =      4113.4727 E_long   =     -5248.2457 Press    =      -841.1613 
---------------- Step     7200 ----- CPU =    173.4350 (sec) ----------------
TotEng   =      -784.4459 KinEng   =       180.4108 Temp     =       304.1411 
PotEng   =      -964.8567 E_bond   =         0.0000 E_angle  =         0.0000 
E_dihed  =         0.0000 E_impro  =         0.0000 E_vdwl   =       185.6435 
E_coul   =      4097.7462 E_long   =     -5248.2464 Press    =      -509.7589 
---------------- Step     7300 ----- CPU =    175.9728 (sec) ----------------
TotEng   =      -786.1110 KinEng   =       183.1122 Temp     =       308.6953 
PotEng   =      -969.2232 E_bond   =         0.0000 E_angle  =         0.0000 
E_dihed  =         0.0000 E_impro  =         0.0000 E_vdwl   =       195.5722 
E_coul   =      4084.0898 E_long   =     -5248.8852 Press    =      -350.2029 
---------------- Step     7400 ----- CPU =    178.5003 (sec) ----------------
TotEng   =      -783.5097 KinEng   =       189.2666 Temp     =       319.0705 
PotEng   =      -972.7763 E_bond   =         0.0000 E_angle  =         0.0000 
E_dihed  =         0.0000 E_impro  =         0.0000 E_vdwl   =       202.3509 
E_coul   =      4073.0119 E_long   =     -5248.1391 Press    =      -377.2420 
---------------- Step     7500 ----- CPU =    181.0243 (sec) ----------------
TotEng   =      -783.2751 KinEng   =       186.8802 Temp     =       315.0474 
PotEng   =      -970.1552 E_bond   =         0.0000 E_angle  =         0.0000 
E_dihed  =         0.0000 E_impro  =         0.0000 E_vdwl   =       192.7858 
E_coul   =      4084.9785 E_long   =     -5247.9196 Press    =      -337.3242 
---------------- Step     7600 ----- CPU =    183.5583 (sec) ----------------
TotEng   =      -791.6221 KinEng   =       159.1607 Temp     =       268.3172 
PotEng   =      -950.7828 E_bond   =         0.0000 E_angle  =         0.0000 
E_dihed  =         0.0000 E_impro  =         0.0000 E_vdwl   =       171.9928 
E_coul   =      4126.4203 E_long   =     -5249.1959 Press    =      -840.5378 
---------------- Step     7700 ----- CPU =    186.0924 (sec) ----------------
TotEng   =      -768.1660 KinEng   =       186.5121 Temp     =       314.4269 
PotEng   =      -954.6781 E_bond   =         0.0000 E_angle  =         0.0000 
E_dihed  =         0.0000 E_impro  =         0.0000 E_vdwl   =       204.2139 
E_coul   =      4088.5983 E_long   =     -5247.4903 Press    =       194.0294 
---------------- Step     7800 ----- CPU =    188.6091 (sec) ----------------
TotEng   =      -786.8805 KinEng   =       186.7159 Temp     =       314.7704 
PotEng   =      -973.5964 E_bond   =         0.0000 E_angle  =         0.0000 
E_dihed  =         0.0000 E_impro  =         0.0000 E_vdwl   =       161.0440 
E_coul   =      4111.7853 E_long   =     -5246.4257 Press    =     -1098.9789 
---------------- Step     7900 ----- CPU =    191.1203 (sec) ----------------
TotEng   =      -796.3121 KinEng   =       177.7287 Temp     =       299.6195 
PotEng   =      -974.0407 E_bond   =         0.0000 E_angle  =         0.0000 
E_dihed  =         0.0000 E_impro  =         0.0000 E_vdwl   =       191.4758 
E_coul   =      4084.3972 E_long   =     -5249.9138 Press    =      -576.4385 
---------------- Step     8000 ----- CPU =    193.6414 (sec) ----------------
TotEng   =      -793.3472 KinEng   =       179.8845 Temp     =       303.2539 
PotEng   =      -973.2318 E_bond   =         0.0000 E_angle  =         0.0000 
E_dihed  =         0.0000 E_impro  =         0.0000 E_vdwl   =       181.6011 
E_coul   =      4094.8484 E_long   =     -5249.6812 Press    =      -890.8191 
---------------- Step     8100 ----- CPU =    196.1778 (sec) ----------------
TotEng   =      -784.6326 KinEng   =       187.4176 Temp     =       315.9534 
PotEng   =      -972.0502 E_bond   =         0.0000 E_angle  =         0.0000 
E_dihed  =         0.0000 E_impro  =         0.0000 E_vdwl   =       196.3473 
E_coul   =      4080.7396 E_long   =     -5249.1371 Press    =      -354.9535 
---------------- Step     8200 ----- CPU =    198.7115 (sec) ----------------
TotEng   =      -785.5763 KinEng   =       179.5317 Temp     =       302.6591 
PotEng   =      -965.1080 E_bond   =         0.0000 E_angle  =         0.0000 
E_dihed  =         0.0000 E_impro  =         0.0000 E_vdwl   =       190.3271 
E_coul   =      4091.9003 E_long   =     -5247.3354 Press    =      -468.9000 
---------------- Step     8300 ----- CPU =    201.2810 (sec) ----------------
TotEng   =      -758.6174 KinEng   =       195.1591 Temp     =       329.0042 
PotEng   =      -953.7765 E_bond   =         0.0000 E_angle  =         0.0000 
E_dihed  =         0.0000 E_impro  =         0.0000 E_vdwl   =       239.1154 
E_coul   =      4052.8164 E_long   =     -5245.7083 Press    =      1046.0301 
---------------- Step     8400 ----- CPU =    203.7977 (sec) ----------------
TotEng   =      -785.6936 KinEng   =       177.4041 Temp     =       299.0724 
PotEng   =      -963.0977 E_bond   =         0.0000 E_angle  =         0.0000 
E_dihed  =         0.0000 E_impro  =         0.0000 E_vdwl   =       195.5397 
E_coul   =      4088.5445 E_long   =     -5247.1819 Press    =      -506.1475 
---------------- Step     8500 ----- CPU =    206.3272 (sec) ----------------
TotEng   =      -786.8974 KinEng   =       176.4510 Temp     =       297.4656 
PotEng   =      -963.3484 E_bond   =         0.0000 E_angle  =         0.0000 
E_dihed  =         0.0000 E_impro  =         0.0000 E_vdwl   =       205.6858 
E_coul   =      4078.5687 E_long   =     -5247.6029 Press    =        97.5518 
---------------- Step     8600 ----- CPU =    208.8646 (sec) ----------------
TotEng   =      -778.4888 KinEng   =       168.3854 Temp     =       283.8684 
PotEng   =      -946.8742 E_bond   =         0.0000 E_angle  =         0.0000 
E_dihed  =         0.0000 E_impro  =         0.0000 E_vdwl   =       170.7177 
E_coul   =      4128.8450 E_long   =     -5246.4370 Press    =      -636.2116 
---------------- Step     8700 ----- CPU =    211.3842 (sec) ----------------
TotEng   =      -759.8587 KinEng   =       206.9980 Temp     =       348.9625 
PotEng   =      -966.8567 E_bond   =         0.0000 E_angle  =         0.0000 
E_dihed  =         0.0000 E_impro  =         0.0000 E_vdwl   =       177.1083 
E_coul   =      4101.9857 E_long   =     -5245.9508 Press    =      -542.5947 
---------------- Step     8800 ----- CPU =    213.8720 (sec) ----------------
TotEng   =      -804.2010 KinEng   =       184.1993 Temp     =       310.5279 
PotEng   =      -988.4003 E_bond   =         0.0000 E_angle  =         0.0000 
E_dihed  =         0.0000 E_impro  =         0.0000 E_vdwl   =       188.4550 
E_coul   =      4071.4410 E_long   =     -5248.2962 Press    =      -647.0471 
---------------- Step     8900 ----- CPU =    216.4119 (sec) ----------------
TotEng   =      -802.8742 KinEng   =       178.0657 Temp     =       300.1876 
PotEng   =      -980.9399 E_bond   =         0.0000 E_angle  =         0.0000 
E_dihed  =         0.0000 E_impro  =         0.0000 E_vdwl   =       181.4467 
E_coul   =      4086.2770 E_long   =     -5248.6636 Press    =      -774.2535 
---------------- Step     9000 ----- CPU =    218.9682 (sec) ----------------
TotEng   =      -772.2945 KinEng   =       200.7986 Temp     =       338.5114 
PotEng   =      -973.0931 E_bond   =         0.0000 E_angle  =         0.0000 
E_dihed  =         0.0000 E_impro  =         0.0000 E_vdwl   =       201.3482 
E_coul   =      4076.3423 E_long   =     -5250.7835 Press    =        21.3185 
---------------- Step     9100 ----- CPU =    221.4699 (sec) ----------------
TotEng   =      -809.1295 KinEng   =       181.2484 Temp     =       305.5531 
PotEng   =      -990.3779 E_bond   =         0.0000 E_angle  =         0.0000 
E_dihed  =         0.0000 E_impro  =         0.0000 E_vdwl   =       212.5560 
E_coul   =      4047.8215 E_long   =     -5250.7554 Press    =         3.6291 
---------------- Step     9200 ----- CPU =    223.9793 (sec) ----------------
TotEng   =      -825.4674 KinEng   =       188.8787 Temp     =       318.4166 
PotEng   =     -1014.3461 E_bond   =         0.0000 E_angle  =         0.0000 
E_dihed  =         0.0000 E_impro  =         0.0000 E_vdwl   =       195.0533 
E_coul   =      4040.5777 E_long   =     -5249.9772 Press    =      -590.9871 
---------------- Step     9300 ----- CPU =    226.4878 (sec) ----------------
TotEng   =      -835.6099 KinEng   =       176.6630 Temp     =       297.8230 
PotEng   =     -1012.2729 E_bond   =         0.0000 E_angle  =         0.0000 
E_dihed  =         0.0000 E_impro  =         0.0000 E_vdwl   =       205.0730 
E_coul   =      4033.4139 E_long   =     -5250.7599 Press    =      -335.3779 
---------------- Step     9400 ----- CPU =    229.0182 (sec) ----------------
TotEng   =      -792.7298 KinEng   =       188.0761 Temp     =       317.0635 
PotEng   =      -980.8059 E_bond   =         0.0000 E_angle  =         0.0000 
E_dihed  =         0.0000 E_impro  =         0.0000 E_vdwl   =       177.7628 
E_coul   =      4090.2660 E_long   =     -5248.8348 Press    =      -909.0050 
---------------- Step     9500 ----- CPU =    231.5461 (sec) ----------------
TotEng   =      -787.1667 KinEng   =       201.7407 Temp     =       340.0996 
PotEng   =      -988.9074 E_bond   =         0.0000 E_angle  =         0.0000 
E_dihed  =         0.0000 E_impro  =         0.0000 E_vdwl   =       204.9790 
E_coul   =      4056.3463 E_long   =     -5250.2327 Press    =      -196.0287 
---------------- Step     9600 ----- CPU =    234.0802 (sec) ----------------
TotEng   =      -822.9898 KinEng   =       168.4472 Temp     =       283.9725 
PotEng   =      -991.4369 E_bond   =         0.0000 E_angle  =         0.0000 
E_dihed  =         0.0000 E_impro  =         0.0000 E_vdwl   =       179.9161 
E_coul   =      4079.5061 E_long   =     -5250.8592 Press    =      -814.8596 
---------------- Step     9700 ----- CPU =    236.6671 (sec) ----------------
TotEng   =      -800.0350 KinEng   =       182.6963 Temp     =       307.9941 
PotEng   =      -982.7313 E_bond   =         0.0000 E_angle  =         0.0000 
E_dihed  =         0.0000 E_impro  =         0.0000 E_vdwl   =       179.8640 
E_coul   =      4086.6865 E_long   =     -5249.2818 Press    =      -528.8010 
---------------- Step     9800 ----- CPU =    239.2018 (sec) ----------------
TotEng   =      -754.8327 KinEng   =       187.1153 Temp     =       315.4437 
PotEng   =      -941.9480 E_bond   =         0.0000 E_angle  =         0.0000 
E_dihed  =         0.0000 E_impro  =         0.0000 E_vdwl   =       162.5969 
E_coul   =      4143.1422 E_long   =     -5247.6871 Press    =      -928.8204 
---------------- Step     9900 ----- CPU =    241.7225 (sec) ----------------
TotEng   =      -762.8718 KinEng   =       196.2247 Temp     =       330.8006 
PotEng   =      -959.0965 E_bond   =         0.0000 E_angle  =         0.0000 
E_dihed  =         0.0000 E_impro  =         0.0000 E_vdwl   =       199.4452 
E_coul   =      4091.3828 E_long   =     -5249.9245 Press    =      -196.2680 
---------------- Step    10000 ----- CPU =    244.2672 (sec) ----------------
TotEng   =      -796.1712 KinEng   =       192.1308 Temp     =       323.8989 
PotEng   =      -988.3019 E_bond   =         0.0000 E_angle  =         0.0000 
E_dihed  =         0.0000 E_impro  =         0.0000 E_vdwl   =       218.1576 
E_coul   =      4039.8680 E_long   =     -5246.3275 Press    =       350.7473 
---------------- Step    10100 ----- CPU =    246.8367 (sec) ----------------
TotEng   =      -788.1190 KinEng   =       205.9571 Temp     =       347.2077 
PotEng   =      -994.0760 E_bond   =         0.0000 E_angle  =         0.0000 
E_dihed  =         0.0000 E_impro  =         0.0000 E_vdwl   =       226.6154 
E_coul   =      4029.2910 E_long   =     -5249.9825 Press    =       554.9771 
---------------- Step    10200 ----- CPU =    249.3819 (sec) ----------------
TotEng   =      -774.5381 KinEng   =       193.0836 Temp     =       325.5052 
PotEng   =      -967.6216 E_bond   =         0.0000 E_angle  =         0.0000 
E_dihed  =         0.0000 E_impro  =         0.0000 E_vdwl   =       165.5094 
E_coul   =      4115.3860 E_long   =     -5248.5170 Press    =     -1095.9017 
---------------- Step    10300 ----- CPU =    251.9008 (sec) ----------------
TotEng   =      -786.9482 KinEng   =       194.2350 Temp     =       327.4463 
PotEng   =      -981.1832 E_bond   =         0.0000 E_angle  =         0.0000 
E_dihed  =         0.0000 E_impro  =         0.0000 E_vdwl   =       190.0740 
E_coul   =      4077.0065 E_long   =     -5248.2637 Press    =      -412.4776 
---------------- Step    10400 ----- CPU =    254.3940 (sec) ----------------
TotEng   =      -803.4505 KinEng   =       165.0817 Temp     =       278.2989 
PotEng   =      -968.5321 E_bond   =         0.0000 E_angle  =         0.0000 
E_dihed  =         0.0000 E_impro  =         0.0000 E_vdwl   =       181.4794 
E_coul   =      4100.1681 E_long   =     -5250.1797 Press    =      -788.4925 
---------------- Step    10500 ----- CPU =    256.9723 (sec) ----------------
TotEng   =      -776.7704 KinEng   =       188.6336 Temp     =       318.0033 
PotEng   =      -965.4040 E_bond   =         0.0000 E_angle  =         0.0000 
E_dihed  =         0.0000 E_impro  =         0.0000 E_vdwl   =       172.8532 
E_coul   =      4112.0353 E_long   =     -5250.2924 Press    =      -723.4951 
---------------- Step    10600 ----- CPU =    259.5295 (sec) ----------------
TotEng   =      -806.4128 KinEng   =       187.5400 Temp     =       316.1596 
PotEng   =      -993.9528 E_bond   =         0.0000 E_angle  =         0.0000 
E_dihed  =         0.0000 E_impro  =         0.0000 E_vdwl   =       165.7777 
E_coul   =      4090.5910 E_long   =     -5250.3215 Press    =     -1233.1848 
---------------- Step    10700 ----- CPU =    262.0436 (sec) ----------------
TotEng   =      -809.9312 KinEng   =       183.9415 Temp     =       310.0933 
PotEng   =      -993.8727 E_bond   =         0.0000 E_angle  =         0.0000 
E_dihed  =         0.0000 E_impro  =         0.0000 E_vdwl   =       186.1727 
E_coul   =      4071.5619 E_long   =     -5251.6073 Press    =      -771.7226 
---------------- Step    10800 ----- CPU =    264.6007 (sec) ----------------
TotEng   =      -785.1799 KinEng   =       190.9998 Temp     =       321.9923 
PotEng   =      -976.1796 E_bond   =         0.0000 E_angle  =         0.0000 
E_dihed  =         0.0000 E_impro  =         0.0000 E_vdwl   =       195.2499 
E_coul   =      4079.4878 E_long   =     -5250.9173 Press    =      -236.3072 
---------------- Step    10900 ----- CPU =    267.2001 (sec) ----------------
TotEng   =      -773.5525 KinEng   =       183.9339 Temp     =       310.0805 
PotEng   =      -957.4864 E_bond   =         0.0000 E_angle  =         0.0000 
E_dihed  =         0.0000 E_impro  =         0.0000 E_vdwl   =       165.2703 
E_coul   =      4126.3604 E_long   =     -5249.1171 Press    =      -940.5094 
---------------- Step    11000 ----- CPU =    269.7670 (sec) ----------------
TotEng   =      -793.2749 KinEng   =       180.8819 Temp     =       304.9353 
PotEng   =      -974.1568 E_bond   =         0.0000 E_angle  =         0.0000 
E_dihed  =         0.0000 E_impro  =         0.0000 E_vdwl   =       176.4202 
E_coul   =      4096.9614 E_long   =     -5247.5384 Press    =     -1052.2386 
---------------- Step    11100 ----- CPU =    272.2678 (sec) ----------------
TotEng   =      -793.4636 KinEng   =       189.5580 Temp     =       319.5617 
PotEng   =      -983.0216 E_bond   =         0.0000 E_angle  =         0.0000 
E_dihed  =         0.0000 E_impro  =         0.0000 E_vdwl   =       234.3934 
E_coul   =      4032.6125 E_long   =     -5250.0275 Press    =       860.5944 
---------------- Step    11200 ----- CPU =    274.7484 (sec) ----------------
TotEng   =      -818.4259 KinEng   =       161.7768 Temp     =       272.7274 
PotEng   =      -980.2027 E_bond   =         0.0000 E_angle  =         0.0000 
E_dihed  =         0.0000 E_impro  =         0.0000 E_vdwl   =       187.8732 
E_coul   =      4082.5981 E_long   =     -5250.6740 Press    =      -589.1500 
---------------- Step    11300 ----- CPU =    277.2536 (sec) ----------------
TotEng   =      -785.8414 KinEng   =       194.8104 Temp     =       328.4163 
PotEng   =      -980.6518 E_bond   =         0.0000 E_angle  =         0.0000 
E_dihed  =         0.0000 E_impro  =         0.0000 E_vdwl   =       178.7498 
E_coul   =      4089.3492 E_long   =     -5248.7508 Press    =      -674.3446 
---------------- Step    11400 ----- CPU =    279.7668 (sec) ----------------
TotEng   =      -825.0596 KinEng   =       164.8852 Temp     =       277.9676 
PotEng   =      -989.9447 E_bond   =         0.0000 E_angle  =         0.0000 
E_dihed  =         0.0000 E_impro  =         0.0000 E_vdwl   =       199.9855 
E_coul   =      4056.6206 E_long   =     -5246.5508 Press    =      -250.2639 
---------------- Step    11500 ----- CPU =    282.2963 (sec) ----------------
TotEng   =      -815.5224 KinEng   =       178.0838 Temp     =       300.2181 
PotEng   =      -993.6061 E_bond   =         0.0000 E_angle  =         0.0000 
E_dihed  =         0.0000 E_impro  =         0.0000 E_vdwl   =       184.1877 
E_coul   =      4073.9387 E_long   =     -5251.7325 Press    =      -611.8950 
---------------- Step    11600 ----- CPU =    284.8081 (sec) ----------------
TotEng   =      -783.1961 KinEng   =       201.2298 Temp     =       339.2383 
PotEng   =      -984.4259 E_bond   =         0.0000 E_angle  =         0.0000 
E_dihed  =         0.0000 E_impro  =         0.0000 E_vdwl   =       193.7159 
E_coul   =      4071.2817 E_long   =     -5249.4236 Press    =      -202.8951 
---------------- Step    11700 ----- CPU =    287.3350 (sec) ----------------
TotEng   =      -791.6105 KinEng   =       178.4242 Temp     =       300.7920 
PotEng   =      -970.0347 E_bond   =         0.0000 E_angle  =         0.0000 
E_dihed  =         0.0000 E_impro  =         0.0000 E_vdwl   =       167.0389 
E_coul   =      4110.1422 E_long   =     -5247.2158 Press    =      -918.5964 
---------------- Step    11800 ----- CPU =    289.8222 (sec) ----------------
TotEng   =      -826.4316 KinEng   =       163.1557 Temp     =       275.0520 
PotEng   =      -989.5872 E_bond   =         0.0000 E_angle  =         0.0000 
E_dihed  =         0.0000 E_impro  =         0.0000 E_vdwl   =       199.5009 
E_coul   =      4061.5540 E_long   =     -5250.6422 Press    =      -300.8418 
---------------- Step    11900 ----- CPU =    292.3399 (sec) ----------------
TotEng   =      -794.8535 KinEng   =       188.8621 Temp     =       318.3885 
PotEng   =      -983.7155 E_bond   =         0.0000 E_angle  =         0.0000 
E_dihed  =         0.0000 E_impro  =         0.0000 E_vdwl   =       215.3697 
E_coul   =      4049.6055 E_long   =     -5248.6907 Press    =       145.4730 
---------------- Step    12000 ----- CPU =    294.8619 (sec) ----------------
TotEng   =      -778.5010 KinEng   =       190.8564 Temp     =       321.7506 
PotEng   =      -969.3574 E_bond   =         0.0000 E_angle  =         0.0000 
E_dihed  =         0.0000 E_impro  =         0.0000 E_vdwl   =       172.1838 
E_coul   =      4106.6479 E_long   =     -5248.1892 Press    =      -972.3404 
---------------- Step    12100 ----- CPU =    297.3942 (sec) ----------------
TotEng   =      -741.8065 KinEng   =       193.5952 Temp     =       326.3677 
PotEng   =      -935.4017 E_bond   =         0.0000 E_angle  =         0.0000 
E_dihed  =         0.0000 E_impro  =         0.0000 E_vdwl   =       196.5578 
E_coul   =      4116.1973 E_long   =     -5248.1569 Press    =        39.9187 
---------------- Step    12200 ----- CPU =    299.9006 (sec) ----------------
TotEng   =      -766.3232 KinEng   =       182.9044 Temp     =       308.3450 
PotEng   =      -949.2276 E_bond   =         0.0000 E_angle  =         0.0000 
E_dihed  =         0.0000 E_impro  =         0.0000 E_vdwl   =       168.5774 
E_coul   =      4128.6168 E_long   =     -5246.4219 Press    =      -631.8231 
---------------- Step    12300 ----- CPU =    302.4200 (sec) ----------------
TotEng   =      -801.0986 KinEng   =       174.6339 Temp     =       294.4023 
PotEng   =      -975.7325 E_bond   =         0.0000 E_angle  =         0.0000 
E_dihed  =         0.0000 E_impro  =         0.0000 E_vdwl   =       207.0573 
E_coul   =      4069.0783 E_long   =     -5251.8681 Press    =        76.1531 
---------------- Step    12400 ----- CPU =    304.9300 (sec) ----------------
TotEng   =      -802.3000 KinEng   =       169.9005 Temp     =       286.4227 
PotEng   =      -972.2005 E_bond   =         0.0000 E_angle  =         0.0000 
E_dihed  =         0.0000 E_impro  =         0.0000 E_vdwl   =       178.7543 
E_coul   =      4098.5796 E_long   =     -5249.5344 Press    =      -830.7673 
---------------- Step    12500 ----- CPU =    307.4382 (sec) ----------------
TotEng   =      -776.8047 KinEng   =       181.8538 Temp     =       306.5737 
PotEng   =      -958.6585 E_bond   =         0.0000 E_angle  =         0.0000 
E_dihed  =         0.0000 E_impro  =         0.0000 E_vdwl   =       156.6673 
E_coul   =      4135.9816 E_long   =     -5251.3074 Press    =     -1171.1607 
---------------- Step    12600 ----- CPU =    309.9413 (sec) ----------------
TotEng   =      -763.3667 KinEng   =       201.2990 Temp     =       339.3550 
PotEng   =      -964.6656 E_bond   =         0.0000 E_angle  =         0.0000 
E_dihed  =         0.0000 E_impro  =         0.0000 E_vdwl   =       178.1565 
E_coul   =      4108.3070 E_long   =     -5251.1291 Press    =      -441.8332 
---------------- Step    12700 ----- CPU =    312.4738 (sec) ----------------
TotEng   =      -772.8556 KinEng   =       178.4619 Temp     =       300.8556 
PotEng   =      -951.3175 E_bond   =         0.0000 E_angle  =         0.0000 
E_dihed  =         0.0000 E_impro  =         0.0000 E_vdwl   =       169.4743 
E_coul   =      4127.0108 E_long   =     -5247.8026 Press    =      -737.8666 
---------------- Step    12800 ----- CPU =    314.9849 (sec) ----------------
TotEng   =      -808.8889 KinEng   =       169.5394 Temp     =       285.8138 
PotEng   =      -978.4282 E_bond   =         0.0000 E_angle  =         0.0000 
E_dihed  =         0.0000 E_impro  =         0.0000 E_vdwl   =       176.3933 
E_coul   =      4093.9097 E_long   =     -5248.7312 Press    =      -852.0899 
---------------- Step    12900 ----- CPU =    317.4918 (sec) ----------------
TotEng   =      -796.8180 KinEng   =       188.4460 Temp     =       317.6870 
PotEng   =      -985.2640 E_bond   =         0.0000 E_angle  =         0.0000 
E_dihed  =         0.0000 E_impro  =         0.0000 E_vdwl   =       213.4457 
E_coul   =      4048.1495 E_long   =     -5246.8592 Press    =        63.7806 
---------------- Step    13000 ----- CPU =    320.0040 (sec) ----------------
TotEng   =      -789.3087 KinEng   =       193.3660 Temp     =       325.9813 
PotEng   =      -982.6747 E_bond   =         0.0000 E_angle  =         0.0000 
E_dihed  =         0.0000 E_impro  =         0.0000 E_vdwl   =       186.2502 
E_coul   =      4080.0900 E_long   =     -5249.0149 Press    =      -675.3627 
---------------- Step    13100 ----- CPU =    322.5412 (sec) ----------------
TotEng   =      -812.7798 KinEng   =       162.4009 Temp     =       273.7796 
PotEng   =      -975.1807 E_bond   =         0.0000 E_angle  =         0.0000 
E_dihed  =         0.0000 E_impro  =         0.0000 E_vdwl   =       198.3060 
E_coul   =      4074.4259 E_long   =     -5247.9126 Press    =      -250.3616 
---------------- Step    13200 ----- CPU =    324.9656 (sec) ----------------
TotEng   =      -781.0860 KinEng   =       178.8299 Temp     =       301.4761 
PotEng   =      -959.9159 E_bond   =         0.0000 E_angle  =         0.0000 
E_dihed  =         0.0000 E_impro  =         0.0000 E_vdwl   =       194.6361 
E_coul   =      4095.2733 E_long   =     -5249.8253 Press    =      -101.0687 
---------------- Step    13300 ----- CPU =    327.3160 (sec) ----------------
TotEng   =      -766.4147 KinEng   =       193.2429 Temp     =       325.7738 
PotEng   =      -959.6576 E_bond   =         0.0000 E_angle  =         0.0000 
E_dihed  =         0.0000 E_impro  =         0.0000 E_vdwl   =       197.8019 
E_coul   =      4092.0964 E_long   =     -5249.5559 Press    =        86.3847 
---------------- Step    13400 ----- CPU =    329.6723 (sec) ----------------
TotEng   =      -800.2629 KinEng   =       168.3461 Temp     =       283.8022 
PotEng   =      -968.6090 E_bond   =         0.0000 E_angle  =         0.0000 
E_dihed  =         0.0000 E_impro  =         0.0000 E_vdwl   =       197.2973 
E_coul   =      4085.5844 E_long   =     -5251.4907 Press    =       -79.2083 
---------------- Step    13500 ----- CPU =    332.0639 (sec) ----------------
TotEng   =      -790.0947 KinEng   =       180.1936 Temp     =       303.7750 
PotEng   =      -970.2883 E_bond   =         0.0000 E_angle  =         0.0000 
E_dihed  =         0.0000 E_impro  =         0.0000 E_vdwl   =       181.7256 
E_coul   =      4098.9223 E_long   =     -5250.9362 Press    =      -678.4881 
---------------- Step    13600 ----- CPU =    334.4357 (sec) ----------------
TotEng   =      -782.3046 KinEng   =       180.1342 Temp     =       303.6749 
PotEng   =      -962.4388 E_bond   =         0.0000 E_angle  =         0.0000 
E_dihed  =         0.0000 E_impro  =         0.0000 E_vdwl   =       192.2216 
E_coul   =      4094.4774 E_long   =     -5249.1377 Press    =      -109.1400 
---------------- Step    13700 ----- CPU =    336.8375 (sec) ----------------
TotEng   =      -812.9572 KinEng   =       173.2072 Temp     =       291.9970 
PotEng   =      -986.1643 E_bond   =         0.0000 E_angle  =         0.0000 
E_dihed  =         0.0000 E_impro  =         0.0000 E_vdwl   =       169.1123 
E_coul   =      4094.3951 E_long   =     -5249.6717 Press    =     -1131.0793 
---------------- Step    13800 ----- CPU =    339.2382 (sec) ----------------
TotEng   =      -823.8252 KinEng   =       170.4029 Temp     =       287.2696 
PotEng   =      -994.2281 E_bond   =         0.0000 E_angle  =         0.0000 
E_dihed  =         0.0000 E_impro  =         0.0000 E_vdwl   =       207.2364 
E_coul   =      4047.7210 E_long   =     -5249.1855 Press    =       -68.3695 
---------------- Step    13900 ----- CPU =    341.5882 (sec) ----------------
TotEng   =      -784.5089 KinEng   =       195.5857 Temp     =       329.7233 
PotEng   =      -980.0945 E_bond   =         0.0000 E_angle  =         0.0000 
E_dihed  =         0.0000 E_impro  =         0.0000 E_vdwl   =       185.2829 
E_coul   =      4081.5736 E_long   =     -5246.9510 Press    =      -388.0735 
---------------- Step    14000 ----- CPU =    343.9624 (sec) ----------------
TotEng   =      -791.2414 KinEng   =       170.1377 Temp     =       286.8225 
PotEng   =      -961.3792 E_bond   =         0.0000 E_angle  =         0.0000 
E_dihed  =         0.0000 E_impro  =         0.0000 E_vdwl   =       184.1761 
E_coul   =      4105.3633 E_long   =     -5250.9186 Press    =      -453.5297 
---------------- Step    14100 ----- CPU =    346.3250 (sec) ----------------
TotEng   =      -809.0350 KinEng   =       185.6451 Temp     =       312.9652 
PotEng   =      -994.6800 E_bond   =         0.0000 E_angle  =         0.0000 
E_dihed  =         0.0000 E_impro  =         0.0000 E_vdwl   =       179.8165 
E_coul   =      4074.9191 E_long   =     -5249.4156 Press    =      -885.0306 
---------------- Step    14200 ----- CPU =    348.7129 (sec) ----------------
TotEng   =      -834.7816 KinEng   =       165.5936 Temp     =       279.1620 
PotEng   =     -1000.3753 E_bond   =         0.0000 E_angle  =         0.0000 
E_dihed  =         0.0000 E_impro  =         0.0000 E_vdwl   =       205.5944 
E_coul   =      4043.5069 E_long   =     -5249.4766 Press    =      -341.2797 
---------------- Step    14300 ----- CPU =    351.0735 (sec) ----------------
TotEng   =      -804.8473 KinEng   =       177.0075 Temp     =       298.4037 
PotEng   =      -981.8547 E_bond   =         0.0000 E_angle  =         0.0000 
E_dihed  =         0.0000 E_impro  =         0.0000 E_vdwl   =       155.5240 
E_coul   =      4110.3729 E_long   =     -5247.7516 Press    =     -1604.9937 
---------------- Step    14400 ----- CPU =    353.4473 (sec) ----------------
TotEng   =      -790.0138 KinEng   =       189.3205 Temp     =       319.1613 
PotEng   =      -979.3343 E_bond   =         0.0000 E_angle  =         0.0000 
E_dihed  =         0.0000 E_impro  =         0.0000 E_vdwl   =       183.8498 
E_coul   =      4084.2549 E_long   =     -5247.4390 Press    =      -608.3751 
---------------- Step    14500 ----- CPU =    355.8323 (sec) ----------------
TotEng   =      -796.5965 KinEng   =       170.6347 Temp     =       287.6603 
PotEng   =      -967.2311 E_bond   =         0.0000 E_angle  =         0.0000 
E_dihed  =         0.0000 E_impro  =         0.0000 E_vdwl   =       190.6956 
E_coul   =      4089.5360 E_long   =     -5247.4628 Press    =      -289.6355 
---------------- Step    14600 ----- CPU =    358.1959 (sec) ----------------
TotEng   =      -803.7655 KinEng   =       187.0983 Temp     =       315.4151 
PotEng   =      -990.8638 E_bond   =         0.0000 E_angle  =         0.0000 
E_dihed  =         0.0000 E_impro  =         0.0000 E_vdwl   =       202.2483 
E_coul   =      4055.9321 E_long   =     -5249.0442 Press    =      -210.5535 
---------------- Step    14700 ----- CPU =    360.6389 (sec) ----------------
TotEng   =      -800.5327 KinEng   =       187.5186 Temp     =       316.1236 
PotEng   =      -988.0513 E_bond   =         0.0000 E_angle  =         0.0000 
E_dihed  =         0.0000 E_impro  =         0.0000 E_vdwl   =       196.3598 
E_coul   =      4066.3184 E_long   =     -5250.7294 Press    =      -371.4334 
---------------- Step    14800 ----- CPU =    363.0464 (sec) ----------------
TotEng   =      -824.3281 KinEng   =       184.1787 Temp     =       310.4931 
PotEng   =     -1008.5068 E_bond   =         0.0000 E_angle  =         0.0000 
E_dihed  =         0.0000 E_impro  =         0.0000 E_vdwl   =       195.3780 
E_coul   =      4046.1123 E_long   =     -5249.9971 Press    =      -584.9050 
---------------- Step    14900 ----- CPU =    365.5022 (sec) ----------------
TotEng   =      -801.0588 KinEng   =       188.2249 Temp     =       317.3144 
PotEng   =      -989.2838 E_bond   =         0.0000 E_angle  =         0.0000 
E_dihed  =         0.0000 E_impro  =         0.0000 E_vdwl   =       200.2709 
E_coul   =      4059.6801 E_long   =     -5249.2349 Press    =      -251.1210 
---------------- Step    15000 ----- CPU =    367.8856 (sec) ----------------
TotEng   =      -803.0159 KinEng   =       191.2409 Temp     =       322.3988 
PotEng   =      -994.2568 E_bond   =         0.0000 E_angle  =         0.0000 
E_dihed  =         0.0000 E_impro  =         0.0000 E_vdwl   =       198.9745 
E_coul   =      4057.8294 E_long   =     -5251.0607 Press    =      -111.9159 
---------------- Step    15100 ----- CPU =    370.2482 (sec) ----------------
TotEng   =      -823.6758 KinEng   =       177.6487 Temp     =       299.4847 
PotEng   =     -1001.3245 E_bond   =         0.0000 E_angle  =         0.0000 
E_dihed  =         0.0000 E_impro  =         0.0000 E_vdwl   =       183.9598 
E_coul   =      4066.0896 E_long   =     -5251.3739 Press    =      -968.8801 
---------------- Step    15200 ----- CPU =    372.5849 (sec) ----------------
TotEng   =      -792.5442 KinEng   =       198.2786 Temp     =       334.2631 
PotEng   =      -990.8228 E_bond   =         0.0000 E_angle  =         0.0000 
E_dihed  =         0.0000 E_impro  =         0.0000 E_vdwl   =       203.0992 
E_coul   =      4057.2996 E_long   =     -5251.2216 Press    =      -259.9704 
---------------- Step    15300 ----- CPU =    374.9792 (sec) ----------------
TotEng   =      -808.0844 KinEng   =       172.1999 Temp     =       290.2989 
PotEng   =      -980.2843 E_bond   =         0.0000 E_angle  =         0.0000 
E_dihed  =         0.0000 E_impro  =         0.0000 E_vdwl   =       195.7933 
E_coul   =      4073.6442 E_long   =     -5249.7218 Press    =      -348.8931 
---------------- Step    15400 ----- CPU =    377.3354 (sec) ----------------
TotEng   =      -801.1617 KinEng   =       166.5258 Temp     =       280.7335 
PotEng   =      -967.6875 E_bond   =         0.0000 E_angle  =         0.0000 
E_dihed  =         0.0000 E_impro  =         0.0000 E_vdwl   =       174.9162 
E_coul   =      4105.7988 E_long   =     -5248.4025 Press    =      -778.3820 
---------------- Step    15500 ----- CPU =    379.7852 (sec) ----------------
TotEng   =      -781.3809 KinEng   =       191.7026 Temp     =       323.1771 
PotEng   =      -973.0835 E_bond   =         0.0000 E_angle  =         0.0000 
E_dihed  =         0.0000 E_impro  =         0.0000 E_vdwl   =       211.3405 
E_coul   =      4065.1362 E_long   =     -5249.5602 Press    =       229.5540 
---------------- Step    15600 ----- CPU =    382.1144 (sec) ----------------
TotEng   =      -801.6774 KinEng   =       166.7481 Temp     =       281.1082 
PotEng   =      -968.4255 E_bond   =         0.0000 E_angle  =         0.0000 
E_dihed  =         0.0000 E_impro  =         0.0000 E_vdwl   =       192.1788 
E_coul   =      4089.2755 E_long   =     -5249.8798 Press    =      -404.6842 
---------------- Step    15700 ----- CPU =    384.5306 (sec) ----------------
TotEng   =      -771.4200 KinEng   =       198.3012 Temp     =       334.3012 
PotEng   =      -969.7211 E_bond   =         0.0000 E_angle  =         0.0000 
E_dihed  =         0.0000 E_impro  =         0.0000 E_vdwl   =       179.9026 
E_coul   =      4099.4597 E_long   =     -5249.0834 Press    =      -632.4126 
---------------- Step    15800 ----- CPU =    386.9907 (sec) ----------------
TotEng   =      -787.3505 KinEng   =       183.0128 Temp     =       308.5277 
PotEng   =      -970.3633 E_bond   =         0.0000 E_angle  =         0.0000 
E_dihed  =         0.0000 E_impro  =         0.0000 E_vdwl   =       186.9984 
E_coul   =      4092.3435 E_long   =     -5249.7052 Press    =      -429.1300 
---------------- Step    15900 ----- CPU =    389.3990 (sec) ----------------
TotEng   =      -808.0731 KinEng   =       179.1707 Temp     =       302.0506 
PotEng   =      -987.2438 E_bond   =         0.0000 E_angle  =         0.0000 
E_dihed  =         0.0000 E_impro  =         0.0000 E_vdwl   =       200.5902 
E_coul   =      4059.0637 E_long   =     -5246.8977 Press    =      -180.9660 
---------------- Step    16000 ----- CPU =    391.7714 (sec) ----------------
TotEng   =      -818.6778 KinEng   =       181.6270 Temp     =       306.1915 
PotEng   =     -1000.3048 E_bond   =         0.0000 E_angle  =         0.0000 
E_dihed  =         0.0000 E_impro  =         0.0000 E_vdwl   =       188.1410 
E_coul   =      4062.4485 E_long   =     -5250.8943 Press    =      -853.3642 
---------------- Step    16100 ----- CPU =    394.1382 (sec) ----------------
TotEng   =      -785.6497 KinEng   =       185.0004 Temp     =       311.8784 
PotEng   =      -970.6501 E_bond   =         0.0000 E_angle  =         0.0000 
E_dihed  =         0.0000 E_impro  =         0.0000 E_vdwl   =       199.4567 
E_coul   =      4079.0576 E_long   =     -5249.1645 Press    =       -68.3797 
---------------- Step    16200 ----- CPU =    396.5405 (sec) ----------------
TotEng   =      -808.7019 KinEng   =       158.8218 Temp     =       267.7458 
PotEng   =      -967.5237 E_bond   =         0.0000 E_angle  =         0.0000 
E_dihed  =         0.0000 E_impro  =         0.0000 E_vdwl   =       174.5813 
E_coul   =      4104.8671 E_long   =     -5246.9721 Press    =      -847.6638 
---------------- Step    16300 ----- CPU =    398.9192 (sec) ----------------
TotEng   =      -786.7456 KinEng   =       182.1771 Temp     =       307.1187 
PotEng   =      -968.9226 E_bond   =         0.0000 E_angle  =         0.0000 
E_dihed  =         0.0000 E_impro  =         0.0000 E_vdwl   =       188.8526 
E_coul   =      4088.6287 E_long   =     -5246.4039 Press    =      -523.3508 
---------------- Step    16400 ----- CPU =    401.2590 (sec) ----------------
TotEng   =      -793.0181 KinEng   =       198.4989 Temp     =       334.6345 
PotEng   =      -991.5169 E_bond   =         0.0000 E_angle  =         0.0000 
E_dihed  =         0.0000 E_impro  =         0.0000 E_vdwl   =       202.6651 
E_coul   =      4054.1251 E_long   =     -5248.3072 Press    =      -543.6512 
---------------- Step    16500 ----- CPU =    403.6619 (sec) ----------------
TotEng   =      -808.8750 KinEng   =       183.9327 Temp     =       310.0784 
PotEng   =      -992.8077 E_bond   =         0.0000 E_angle  =         0.0000 
E_dihed  =         0.0000 E_impro  =         0.0000 E_vdwl   =       215.4022 
E_coul   =      4040.7293 E_long   =     -5248.9391 Press    =        52.6469 
---------------- Step    16600 ----- CPU =    406.0586 (sec) ----------------
TotEng   =      -798.3725 KinEng   =       191.1291 Temp     =       322.2103 
PotEng   =      -989.5016 E_bond   =         0.0000 E_angle  =         0.0000 
E_dihed  =         0.0000 E_impro  =         0.0000 E_vdwl   =       210.6484 
E_coul   =      4048.7208 E_long   =     -5248.8708 Press    =        41.4476 
---------------- Step    16700 ----- CPU =    408.4707 (sec) ----------------
TotEng   =      -777.5195 KinEng   =       189.1891 Temp     =       318.9398 
PotEng   =      -966.7086 E_bond   =         0.0000 E_angle  =         0.0000 
E_dihed  =         0.0000 E_impro  =         0.0000 E_vdwl   =       200.9734 
E_coul   =      4081.9137 E_long   =     -5249.5957 Press    =        12.7900 
---------------- Step    16800 ----- CPU =    410.9041 (sec) ----------------
TotEng   =      -799.9598 KinEng   =       169.7134 Temp     =       286.1072 
PotEng   =      -969.6732 E_bond   =         0.0000 E_angle  =         0.0000 
E_dihed  =         0.0000 E_impro  =         0.0000 E_vdwl   =       181.4396 
E_coul   =      4098.8701 E_long   =     -5249.9830 Press    =      -762.9252 
---------------- Step    16900 ----- CPU =    413.2585 (sec) ----------------
TotEng   =      -829.1936 KinEng   =       179.4333 Temp     =       302.4933 
PotEng   =     -1008.6270 E_bond   =         0.0000 E_angle  =         0.0000 
E_dihed  =         0.0000 E_impro  =         0.0000 E_vdwl   =       229.4602 
E_coul   =      4008.8166 E_long   =     -5246.9038 Press    =       284.7072 
---------------- Step    17000 ----- CPU =    415.6162 (sec) ----------------
TotEng   =      -833.9080 KinEng   =       167.1805 Temp     =       281.8372 
PotEng   =     -1001.0885 E_bond   =         0.0000 E_angle  =         0.0000 
E_dihed  =         0.0000 E_impro  =         0.0000 E_vdwl   =       194.6725 
E_coul   =      4056.9270 E_long   =     -5252.6879 Press    =      -754.1260 
---------------- Step    17100 ----- CPU =    418.0652 (sec) ----------------
TotEng   =      -794.2078 KinEng   =       177.1960 Temp     =       298.7215 
PotEng   =      -971.4038 E_bond   =         0.0000 E_angle  =         0.0000 
E_dihed  =         0.0000 E_impro  =         0.0000 E_vdwl   =       182.2063 
E_coul   =      4097.2380 E_long   =     -5250.8480 Press    =      -640.7605 
---------------- Step    17200 ----- CPU =    420.4305 (sec) ----------------
TotEng   =      -764.3554 KinEng   =       188.7248 Temp     =       318.1570 
PotEng   =      -953.0801 E_bond   =         0.0000 E_angle  =         0.0000 
E_dihed  =         0.0000 E_impro  =         0.0000 E_vdwl   =       223.4484 
E_coul   =      4070.2503 E_long   =     -5246.7789 Press    =       756.1806 
---------------- Step    17300 ----- CPU =    422.7694 (sec) ----------------
TotEng   =      -791.6325 KinEng   =       181.8614 Temp     =       306.5867 
PotEng   =      -973.4939 E_bond   =         0.0000 E_angle  =         0.0000 
E_dihed  =         0.0000 E_impro  =         0.0000 E_vdwl   =       170.8145 
E_coul   =      4104.9217 E_long   =     -5249.2301 Press    =     -1150.6851 
---------------- Step    17400 ----- CPU =    425.1786 (sec) ----------------
TotEng   =      -790.5048 KinEng   =       175.6524 Temp     =       296.1193 
PotEng   =      -966.1572 E_bond   =         0.0000 E_angle  =         0.0000 
E_dihed  =         0.0000 E_impro  =         0.0000 E_vdwl   =       190.8295 
E_coul   =      4091.7120 E_long   =     -5248.6987 Press    =      -504.5646 
---------------- Step    17500 ----- CPU =    427.5792 (sec) ----------------
TotEng   =      -784.2377 KinEng   =       178.1773 Temp     =       300.3759 
PotEng   =      -962.4150 E_bond   =         0.0000 E_angle  =         0.0000 
E_dihed  =         0.0000 E_impro  =         0.0000 E_vdwl   =       194.5104 
E_coul   =      4091.9118 E_long   =     -5248.8373 Press    =      -105.6192 
---------------- Step    17600 ----- CPU =    429.9501 (sec) ----------------
TotEng   =      -784.7287 KinEng   =       200.7954 Temp     =       338.5060 
PotEng   =      -985.5241 E_bond   =         0.0000 E_angle  =         0.0000 
E_dihed  =         0.0000 E_impro  =         0.0000 E_vdwl   =       199.0540 
E_coul   =      4063.5691 E_long   =     -5248.1471 Press    =      -365.1782 
---------------- Step    17700 ----- CPU =    432.3692 (sec) ----------------
TotEng   =      -802.8091 KinEng   =       166.6793 Temp     =       280.9922 
PotEng   =      -969.4884 E_bond   =         0.0000 E_angle  =         0.0000 
E_dihed  =         0.0000 E_impro  =         0.0000 E_vdwl   =       196.9379 
E_coul   =      4081.1924 E_long   =     -5247.6187 Press    =      -508.3695 
---------------- Step    17800 ----- CPU =    434.7506 (sec) ----------------
TotEng   =      -770.6160 KinEng   =       186.0480 Temp     =       313.6444 
PotEng   =      -956.6640 E_bond   =         0.0000 E_angle  =         0.0000 
E_dihed  =         0.0000 E_impro  =         0.0000 E_vdwl   =       214.8985 
E_coul   =      4077.2998 E_long   =     -5248.8623 Press    =       593.2093 
---------------- Step    17900 ----- CPU =    437.1366 (sec) ----------------
TotEng   =      -788.5195 KinEng   =       177.5676 Temp     =       299.3480 
PotEng   =      -966.0871 E_bond   =         0.0000 E_angle  =         0.0000 
E_dihed  =         0.0000 E_impro  =         0.0000 E_vdwl   =       174.9952 
E_coul   =      4105.5580 E_long   =     -5246.6403 Press    =      -832.1964 
---------------- Step    18000 ----- CPU =    439.5691 (sec) ----------------
TotEng   =      -800.4997 KinEng   =       180.6201 Temp     =       304.4939 
PotEng   =      -981.1197 E_bond   =         0.0000 E_angle  =         0.0000 
E_dihed  =         0.0000 E_impro  =         0.0000 E_vdwl   =       193.6859 
E_coul   =      4074.5392 E_long   =     -5249.3448 Press    =      -562.8532 
---------------- Step    18100 ----- CPU =    441.9499 (sec) ----------------
TotEng   =      -787.1240 KinEng   =       205.5875 Temp     =       346.5847 
PotEng   =      -992.7115 E_bond   =         0.0000 E_angle  =         0.0000 
E_dihed  =         0.0000 E_impro  =         0.0000 E_vdwl   =       199.3584 
E_coul   =      4052.1050 E_long   =     -5244.1749 Press    =      -371.8101 
---------------- Step    18200 ----- CPU =    444.3698 (sec) ----------------
TotEng   =      -802.7872 KinEng   =       174.4974 Temp     =       294.1721 
PotEng   =      -977.2846 E_bond   =         0.0000 E_angle  =         0.0000 
E_dihed  =         0.0000 E_impro  =         0.0000 E_vdwl   =       176.2483 
E_coul   =      4092.3260 E_long   =     -5245.8590 Press    =      -891.6363 
---------------- Step    18300 ----- CPU =    446.7537 (sec) ----------------
TotEng   =      -772.6858 KinEng   =       177.2045 Temp     =       298.7358 
PotEng   =      -949.8903 E_bond   =         0.0000 E_angle  =         0.0000 
E_dihed  =         0.0000 E_impro  =         0.0000 E_vdwl   =       187.1869 
E_coul   =      4109.9984 E_long   =     -5247.0756 Press    =      -306.2826 
---------------- Step    18400 ----- CPU =    449.1322 (sec) ----------------
TotEng   =      -776.6634 KinEng   =       184.4138 Temp     =       310.8895 
PotEng   =      -961.0772 E_bond   =         0.0000 E_angle  =         0.0000 
E_dihed  =         0.0000 E_impro  =         0.0000 E_vdwl   =       183.0573 
E_coul   =      4107.4232 E_long   =     -5251.5577 Press    =      -576.6152 
---------------- Step    18500 ----- CPU =    451.5497 (sec) ----------------
TotEng   =      -815.2932 KinEng   =       164.8017 Temp     =       277.8269 
PotEng   =      -980.0948 E_bond   =         0.0000 E_angle  =         0.0000 
E_dihed  =         0.0000 E_impro  =         0.0000 E_vdwl   =       178.0850 
E_coul   =      4091.6759 E_long   =     -5249.8557 Press    =      -843.9902 
---------------- Step    18600 ----- CPU =    453.9528 (sec) ----------------
TotEng   =      -825.6305 KinEng   =       175.4603 Temp     =       295.7955 
PotEng   =     -1001.0908 E_bond   =         0.0000 E_angle  =         0.0000 
E_dihed  =         0.0000 E_impro  =         0.0000 E_vdwl   =       189.3696 
E_coul   =      4059.6622 E_long   =     -5250.1226 Press    =      -612.5183 
---------------- Step    18700 ----- CPU =    456.3447 (sec) ----------------
TotEng   =      -799.2023 KinEng   =       184.0819 Temp     =       310.3300 
PotEng   =      -983.2843 E_bond   =         0.0000 E_angle  =         0.0000 
E_dihed  =         0.0000 E_impro  =         0.0000 E_vdwl   =       216.0393 
E_coul   =      4050.2589 E_long   =     -5249.5824 Press    =       341.2627 
---------------- Step    18800 ----- CPU =    458.7702 (sec) ----------------
TotEng   =      -778.3192 KinEng   =       183.5857 Temp     =       309.4934 
PotEng   =      -961.9048 E_bond   =         0.0000 E_angle  =         0.0000 
E_dihed  =         0.0000 E_impro  =         0.0000 E_vdwl   =       182.5719 
E_coul   =      4101.9088 E_long   =     -5246.3855 Press    =      -344.1544 
---------------- Step    18900 ----- CPU =    461.1731 (sec) ----------------
TotEng   =      -757.8964 KinEng   =       180.9976 Temp     =       305.1304 
PotEng   =      -938.8941 E_bond   =         0.0000 E_angle  =         0.0000 
E_dihed  =         0.0000 E_impro  =         0.0000 E_vdwl   =       199.5742 
E_coul   =      4109.9750 E_long   =     -5248.4432 Press    =       245.9461 
---------------- Step    19000 ----- CPU =    463.6052 (sec) ----------------
TotEng   =      -752.5579 KinEng   =       195.1939 Temp     =       329.0629 
PotEng   =      -947.7518 E_bond   =         0.0000 E_angle  =         0.0000 
E_dihed  =         0.0000 E_impro  =         0.0000 E_vdwl   =       211.0858 
E_coul   =      4091.1376 E_long   =     -5249.9752 Press    =       420.7127 
---------------- Step    19100 ----- CPU =    466.0547 (sec) ----------------
TotEng   =      -780.9524 KinEng   =       175.5532 Temp     =       295.9521 
PotEng   =      -956.5057 E_bond   =         0.0000 E_angle  =         0.0000 
E_dihed  =         0.0000 E_impro  =         0.0000 E_vdwl   =       199.5547 
E_coul   =      4092.3813 E_long   =     -5248.4416 Press    =        50.9178 
---------------- Step    19200 ----- CPU =    468.4099 (sec) ----------------
TotEng   =      -770.8628 KinEng   =       181.6078 Temp     =       306.1591 
PotEng   =      -952.4706 E_bond   =         0.0000 E_angle  =         0.0000 
E_dihed  =         0.0000 E_impro  =         0.0000 E_vdwl   =       196.2041 
E_coul   =      4099.1243 E_long   =     -5247.7991 Press    =      -141.7825 
---------------- Step    19300 ----- CPU =    470.7618 (sec) ----------------
TotEng   =      -747.9359 KinEng   =       182.4506 Temp     =       307.5798 
PotEng   =      -930.3865 E_bond   =         0.0000 E_angle  =         0.0000 
E_dihed  =         0.0000 E_impro  =         0.0000 E_vdwl   =       177.2179 
E_coul   =      4139.0408 E_long   =     -5246.6452 Press    =      -431.0592 
---------------- Step    19400 ----- CPU =    473.1435 (sec) ----------------
TotEng   =      -783.6758 KinEng   =       175.0406 Temp     =       295.0879 
PotEng   =      -958.7165 E_bond   =         0.0000 E_angle  =         0.0000 
E_dihed  =         0.0000 E_impro  =         0.0000 E_vdwl   =       192.7417 
E_coul   =      4096.8067 E_long   =     -5248.2648 Press    =      -370.4075 
---------------- Step    19500 ----- CPU =    475.5528 (sec) ----------------
TotEng   =      -782.0628 KinEng   =       178.8165 Temp     =       301.4534 
PotEng   =      -960.8793 E_bond   =         0.0000 E_angle  =         0.0000 
E_dihed  =         0.0000 E_impro  =         0.0000 E_vdwl   =       177.6453 
E_coul   =      4109.5547 E_long   =     -5248.0793 Press    =      -752.3724 
---------------- Step    19600 ----- CPU =    477.9136 (sec) ----------------
TotEng   =      -772.0817 KinEng   =       193.4428 Temp     =       326.1109 
PotEng   =      -965.5246 E_bond   =         0.0000 E_angle  =         0.0000 
E_dihed  =         0.0000 E_impro  =         0.0000 E_vdwl   =       184.3610 
E_coul   =      4096.2985 E_long   =     -5246.1840 Press    =      -537.0420 
---------------- Step    19700 ----- CPU =    480.2948 (sec) ----------------
TotEng   =      -776.7220 KinEng   =       164.8211 Temp     =       277.8597 
PotEng   =      -941.5431 E_bond   =         0.0000 E_angle  =         0.0000 
E_dihed  =         0.0000 E_impro  =         0.0000 E_vdwl   =       181.2596 
E_coul   =      4125.1309 E_long   =     -5247.9336 Press    =      -377.6538 
---------------- Step    19800 ----- CPU =    482.6931 (sec) ----------------
TotEng   =      -760.1458 KinEng   =       192.5618 Temp     =       324.6256 
PotEng   =      -952.7076 E_bond   =         0.0000 E_angle  =         0.0000 
E_dihed  =         0.0000 E_impro  =         0.0000 E_vdwl   =       169.5146 
E_coul   =      4124.4706 E_long   =     -5246.6928 Press    =      -667.1967 
---------------- Step    19900 ----- CPU =    485.0595 (sec) ----------------
TotEng   =      -783.1589 KinEng   =       171.5644 Temp     =       289.2277 
PotEng   =      -954.7233 E_bond   =         0.0000 E_angle  =         0.0000 
E_dihed  =         0.0000 E_impro  =         0.0000 E_vdwl   =       184.0002 
E_coul   =      4109.7572 E_long   =     -5248.4808 Press    =      -524.3689 
---------------- Step    20000 ----- CPU =    487.4365 (sec) ----------------
TotEng   =      -774.4012 KinEng   =       192.1989 Temp     =       324.0138 
PotEng   =      -966.6001 E_bond   =         0.0000 E_angle  =         0.0000 
E_dihed  =         0.0000 E_impro  =         0.0000 E_vdwl   =       156.8565 
E_coul   =      4125.9331 E_long   =     -5249.3898 Press    =     -1211.1398 
---------------- Step    20100 ----- CPU =    489.7514 (sec) ----------------
TotEng   =      -769.3331 KinEng   =       176.9793 Temp     =       298.3563 
PotEng   =      -946.3124 E_bond   =         0.0000 E_angle  =         0.0000 
E_dihed  =         0.0000 E_impro  =         0.0000 E_vdwl   =       195.6222 
E_coul   =      4107.9798 E_long   =     -5249.9145 Press    =       103.9351 
---------------- Step    20200 ----- CPU =    492.1279 (sec) ----------------
TotEng   =      -803.7315 KinEng   =       183.9557 Temp     =       310.1172 
PotEng   =      -987.6872 E_bond   =         0.0000 E_angle  =         0.0000 
E_dihed  =         0.0000 E_impro  =         0.0000 E_vdwl   =       200.0224 
E_coul   =      4062.3910 E_long   =     -5250.1006 Press    =      -134.8687 
---------------- Step    20300 ----- CPU =    494.4455 (sec) ----------------
TotEng   =      -793.8444 KinEng   =       188.5719 Temp     =       317.8993 
PotEng   =      -982.4163 E_bond   =         0.0000 E_angle  =         0.0000 
E_dihed  =         0.0000 E_impro  =         0.0000 E_vdwl   =       174.0749 
E_coul   =      4090.6307 E_long   =     -5247.1220 Press    =      -948.9952 
---------------- Step    20400 ----- CPU =    496.8213 (sec) ----------------
TotEng   =      -784.5542 KinEng   =       184.4002 Temp     =       310.8666 
PotEng   =      -968.9544 E_bond   =         0.0000 E_angle  =         0.0000 
E_dihed  =         0.0000 E_impro  =         0.0000 E_vdwl   =       190.9139 
E_coul   =      4090.1885 E_long   =     -5250.0568 Press    =      -352.4317 
Loop time of 496.821 on 1 procs for 20000 steps with 300 atoms

Performance: 6.956 ns/day, 3.450 hours/ns, 40.256 timesteps/s
100.0% CPU use with 1 MPI tasks x no OpenMP threads

MPI task timing breakdown:
Section |  min time  |  avg time  |  max time  |%varavg| %total
---------------------------------------------------------------
Pair    | 40.577     | 40.577     | 40.577     |   0.0 |  8.17
Bond    | 0.012873   | 0.012873   | 0.012873   |   0.0 |  0.00
Kspace  | 449.74     | 449.74     | 449.74     |   0.0 | 90.52
Neigh   | 4.7782     | 4.7782     | 4.7782     |   0.0 |  0.96
Comm    | 0.84717    | 0.84717    | 0.84717    |   0.0 |  0.17
Output  | 0.01737    | 0.01737    | 0.01737    |   0.0 |  0.00
Modify  | 0.71639    | 0.71639    | 0.71639    |   0.0 |  0.14
Other   |            | 0.1305     |            |       |  0.03

Nlocal:    300 ave 300 max 300 min
Histogram: 1 0 0 0 0 0 0 0 0 0
Nghost:    5315 ave 5315 max 5315 min
Histogram: 1 0 0 0 0 0 0 0 0 0
Neighs:    105900 ave 105900 max 105900 min
Histogram: 1 0 0 0 0 0 0 0 0 0

Total # of neighbors = 105900
Ave neighs/atom = 353
Ave special neighs/atom = 2
Neighbor list builds = 1468
Dangerous builds = 106
Total wall time: 0:08:26
